
     Program PWSCF v.6.4 starts on 19May2020 at 18:36:17 

     This program is part of the open-source Quantum ESPRESSO suite
     for quantum simulation of materials; please cite
         "P. Giannozzi et al., J. Phys.:Condens. Matter 21 395502 (2009);
         "P. Giannozzi et al., J. Phys.:Condens. Matter 29 465901 (2017);
          URL http://www.quantum-espresso.org", 
     in publications or presentations arising from this work. More details at
     http://www.quantum-espresso.org/quote

     Parallel version (MPI & OpenMP), running on    1024 processor cores
     Number of MPI processes:              1024
     Threads/MPI process:                     1

     MPI processes distributed on    16 nodes
     K-points division:     npool     =      16
     R & G space division:  proc/nbgrp/npool/nimage =      64
     Waiting for input...
     Reading input from standard input

     Current dimensions of program PWSCF are:
     Max number of different atomic species (ntypx) = 10
     Max number of k-points (npk) =  40000
     Max angular momentum in pseudopotentials (lmaxx) =  3
               file Ni.pz-n-rrkjus_psl.0.1.UPF: wavefunction(s)  3D renormalized
               file Ni.pz-n-rrkjus_psl.0.1.UPF: wavefunction(s)  3D renormalized

     Subspace diagonalization in iterative solution of the eigenvalue problem:
     one sub-group per band group will be used
     scalapack distributed-memory algorithm (size of sub-group:  5*  5 procs)

     Found symmetry operation: I + (  0.0000 -0.5000 -0.5000)
     This is a supercell, fractional translations are disabled
 
     Parallelization info
     --------------------
     sticks:   dense  smooth     PW     G-vecs:    dense   smooth      PW
     Min          75      50     13                 3935     2140     307
     Max          76      51     14                 3942     2143     316
     Sum        4825    3205    885               251967   137059   20005
 


     bravais-lattice index     =            0
     lattice parameter (alat)  =      15.8898  a.u.
     unit-cell volume          =    4011.9451 (a.u.)^3
     number of atoms/cell      =           64
     number of atomic types    =            3
     number of electrons       =       512.00
     number of Kohn-Sham states=          614
     kinetic-energy cutoff     =      40.0000  Ry
     charge density cutoff     =     240.0000  Ry
     convergence threshold     =      1.0E-13
     mixing beta               =       0.3000
     number of iterations used =            8  plain     mixing
     Exchange-correlation      = LDA ( 1  1  0  0 0 0)
     Noncollinear calculation without spin-orbit


     celldm(1)=  15.889796  celldm(2)=   0.000000  celldm(3)=   0.000000
     celldm(4)=   0.000000  celldm(5)=   0.000000  celldm(6)=   0.000000

     crystal axes: (cart. coord. in units of alat)
               a(1) = (   1.000000   0.000000   0.000000 )  
               a(2) = (   0.000000   1.000000   0.000000 )  
               a(3) = (   0.000000   0.000000   1.000000 )  

     reciprocal axes: (cart. coord. in units 2 pi/alat)
               b(1) = (  1.000000  0.000000  0.000000 )  
               b(2) = (  0.000000  1.000000  0.000000 )  
               b(3) = (  0.000000  0.000000  1.000000 )  


     PseudoPot. # 1 for Ni read from file:
     ./Ni.pz-n-rrkjus_psl.0.1.UPF
     MD5 check sum: 4def80e42349afdd14834ce81d852c61
     Pseudo is Ultrasoft + core correction, Zval = 10.0
     Generated using "atomic" code by A. Dal Corso v.5.0.2 svn rev. 9415
     Using radial grid of 1195 points,  6 beta functions with: 
                l(1) =   0
                l(2) =   0
                l(3) =   1
                l(4) =   1
                l(5) =   2
                l(6) =   2
     Q(r) pseudized with 0 coefficients 


     PseudoPot. # 2 for Ni read from file:
     ./Ni.pz-n-rrkjus_psl.0.1.UPF
     MD5 check sum: 4def80e42349afdd14834ce81d852c61
     Pseudo is Ultrasoft + core correction, Zval = 10.0
     Generated using "atomic" code by A. Dal Corso v.5.0.2 svn rev. 9415
     Using radial grid of 1195 points,  6 beta functions with: 
                l(1) =   0
                l(2) =   0
                l(3) =   1
                l(4) =   1
                l(5) =   2
                l(6) =   2
     Q(r) pseudized with 0 coefficients 


     PseudoPot. # 3 for O  read from file:
     ./O.pz-n-rrkjus_psl.0.1.UPF
     MD5 check sum: 6e384d5705d3ad042f52b90450e69d34
     Pseudo is Ultrasoft + core correction, Zval =  6.0
     Generated using "atomic" code by A. Dal Corso v.5.0.2 svn rev. 9415
     Using radial grid of 1095 points,  4 beta functions with: 
                l(1) =   0
                l(2) =   0
                l(3) =   1
                l(4) =   1
     Q(r) pseudized with 0 coefficients 


     atomic species   valence    mass     pseudopotential
        Ni1           10.00    58.69000     Ni( 1.00)
        Ni2           10.00    58.69000     Ni( 1.00)
        O              6.00    16.00000     O ( 1.00)


     Full LDA+U calculation (l_max = 2) with parameters (eV):
     U(  1) =   8.0000   J(  1) =   0.0000   B(  1) =   0.0000
     U(  2) =   8.0000   J(  2) =   0.0000   B(  2) =   0.0000



     No symmetry found


                                    s                        frac. trans.

      isym =  1     identity                                     

 Time Reversal            0
 cryst.   s( 1) = (     1          0          0      )
                  (     0          1          0      )
                  (     0          0          1      )

 cart.    s( 1) = (  1.0000000  0.0000000  0.0000000 )
                  (  0.0000000  1.0000000  0.0000000 )
                  (  0.0000000  0.0000000  1.0000000 )


   Cartesian axes

     site n.     atom                  positions (alat units)
         1           Ni1 tau(   1) = (   0.0000000   0.0000000   0.0000000  )
         2           Ni2 tau(   2) = (   0.0000000   0.2500000   0.2500000  )
         3           Ni2 tau(   3) = (   0.2500000   0.0000000   0.2500000  )
         4           Ni2 tau(   4) = (   0.2500000   0.2500000   0.0000000  )
         5           Ni2 tau(   5) = (   0.0000000   0.0000000   0.5000000  )
         6           Ni2 tau(   6) = (   0.0000000   0.5000000   0.0000000  )
         7           Ni2 tau(   7) = (   0.5000000   0.0000000   0.0000000  )
         8           Ni1 tau(   8) = (   0.0000000   0.5000000   0.5000000  )
         9           Ni1 tau(   9) = (   0.5000000   0.2500000   0.2500000  )
        10           Ni1 tau(  10) = (   0.5000000   0.0000000   0.5000000  )
        11           Ni1 tau(  11) = (   0.5000000   0.5000000   0.0000000  )
        12           Ni1 tau(  12) = (   0.2500000   0.5000000   0.2500000  )
        13           Ni1 tau(  13) = (   0.0000000   0.2500000   0.7500000  )
        14           Ni1 tau(  14) = (   0.2500000   0.0000000   0.7500000  )
        15           Ni1 tau(  15) = (   0.2500000   0.2500000   0.5000000  )
        16           Ni1 tau(  16) = (   0.0000000   0.7500000   0.2500000  )
        17           Ni1 tau(  17) = (   0.2500000   0.7500000   0.0000000  )
        18           Ni1 tau(  18) = (   0.7500000   0.0000000   0.2500000  )
        19           Ni1 tau(  19) = (   0.7500000   0.2500000   0.0000000  )
        20           Ni2 tau(  20) = (   0.5000000   0.5000000   0.5000000  )
        21           Ni2 tau(  21) = (   0.2500000   0.5000000   0.7500000  )
        22           Ni2 tau(  22) = (   0.2500000   0.7500000   0.5000000  )
        23           Ni2 tau(  23) = (   0.5000000   0.2500000   0.7500000  )
        24           Ni2 tau(  24) = (   0.5000000   0.7500000   0.2500000  )
        25           Ni2 tau(  25) = (   0.7500000   0.5000000   0.2500000  )
        26           Ni2 tau(  26) = (   0.0000000   0.7500000   0.7500000  )
        27           Ni2 tau(  27) = (   0.7500000   0.0000000   0.7500000  )
        28           Ni2 tau(  28) = (   0.7500000   0.2500000   0.5000000  )
        29           Ni2 tau(  29) = (   0.7500000   0.7500000   0.0000000  )
        30           Ni1 tau(  30) = (   0.5000000   0.7500000   0.7500000  )
        31           Ni1 tau(  31) = (   0.7500000   0.5000000   0.7500000  )
        32           Ni1 tau(  32) = (   0.7500000   0.7500000   0.5000000  )
        33           O   tau(  33) = (   0.0000000   0.0000000   0.2500000  )
        34           O   tau(  34) = (   0.0000000   0.2500000   0.0000000  )
        35           O   tau(  35) = (   0.2500000   0.0000000   0.0000000  )
        36           O   tau(  36) = (   0.2500000   0.2500000   0.2500000  )
        37           O   tau(  37) = (   0.0000000   0.5000000   0.2500000  )
        38           O   tau(  38) = (   0.5000000   0.0000000   0.2500000  )
        39           O   tau(  39) = (   0.5000000   0.2500000   0.0000000  )
        40           O   tau(  40) = (   0.0000000   0.0000000   0.7500000  )
        41           O   tau(  41) = (   0.0000000   0.2500000   0.5000000  )
        42           O   tau(  42) = (   0.2500000   0.0000000   0.5000000  )
        43           O   tau(  43) = (   0.0000000   0.7500000   0.0000000  )
        44           O   tau(  44) = (   0.2500000   0.5000000   0.0000000  )
        45           O   tau(  45) = (   0.7500000   0.0000000   0.0000000  )
        46           O   tau(  46) = (   0.5000000   0.5000000   0.2500000  )
        47           O   tau(  47) = (   0.2500000   0.2500000   0.7500000  )
        48           O   tau(  48) = (   0.2500000   0.7500000   0.2500000  )
        49           O   tau(  49) = (   0.0000000   0.5000000   0.7500000  )
        50           O   tau(  50) = (   0.0000000   0.7500000   0.5000000  )
        51           O   tau(  51) = (   0.2500000   0.5000000   0.5000000  )
        52           O   tau(  52) = (   0.7500000   0.2500000   0.2500000  )
        53           O   tau(  53) = (   0.5000000   0.0000000   0.7500000  )
        54           O   tau(  54) = (   0.5000000   0.2500000   0.5000000  )
        55           O   tau(  55) = (   0.7500000   0.0000000   0.5000000  )
        56           O   tau(  56) = (   0.5000000   0.7500000   0.0000000  )
        57           O   tau(  57) = (   0.7500000   0.5000000   0.0000000  )
        58           O   tau(  58) = (   0.5000000   0.5000000   0.7500000  )
        59           O   tau(  59) = (   0.5000000   0.7500000   0.5000000  )
        60           O   tau(  60) = (   0.7500000   0.5000000   0.5000000  )
        61           O   tau(  61) = (   0.2500000   0.7500000   0.7500000  )
        62           O   tau(  62) = (   0.7500000   0.2500000   0.7500000  )
        63           O   tau(  63) = (   0.7500000   0.7500000   0.2500000  )
        64           O   tau(  64) = (   0.7500000   0.7500000   0.7500000  )

   Crystallographic axes

     site n.     atom                  positions (cryst. coord.)
         1           Ni1 tau(   1) = (  0.0000000  0.0000000  0.0000000  )
         2           Ni2 tau(   2) = (  0.0000000  0.2500000  0.2500000  )
         3           Ni2 tau(   3) = (  0.2500000  0.0000000  0.2500000  )
         4           Ni2 tau(   4) = (  0.2500000  0.2500000  0.0000000  )
         5           Ni2 tau(   5) = (  0.0000000  0.0000000  0.5000000  )
         6           Ni2 tau(   6) = (  0.0000000  0.5000000  0.0000000  )
         7           Ni2 tau(   7) = (  0.5000000  0.0000000  0.0000000  )
         8           Ni1 tau(   8) = (  0.0000000  0.5000000  0.5000000  )
         9           Ni1 tau(   9) = (  0.5000000  0.2500000  0.2500000  )
        10           Ni1 tau(  10) = (  0.5000000  0.0000000  0.5000000  )
        11           Ni1 tau(  11) = (  0.5000000  0.5000000  0.0000000  )
        12           Ni1 tau(  12) = (  0.2500000  0.5000000  0.2500000  )
        13           Ni1 tau(  13) = (  0.0000000  0.2500000  0.7500000  )
        14           Ni1 tau(  14) = (  0.2500000  0.0000000  0.7500000  )
        15           Ni1 tau(  15) = (  0.2500000  0.2500000  0.5000000  )
        16           Ni1 tau(  16) = (  0.0000000  0.7500000  0.2500000  )
        17           Ni1 tau(  17) = (  0.2500000  0.7500000  0.0000000  )
        18           Ni1 tau(  18) = (  0.7500000  0.0000000  0.2500000  )
        19           Ni1 tau(  19) = (  0.7500000  0.2500000  0.0000000  )
        20           Ni2 tau(  20) = (  0.5000000  0.5000000  0.5000000  )
        21           Ni2 tau(  21) = (  0.2500000  0.5000000  0.7500000  )
        22           Ni2 tau(  22) = (  0.2500000  0.7500000  0.5000000  )
        23           Ni2 tau(  23) = (  0.5000000  0.2500000  0.7500000  )
        24           Ni2 tau(  24) = (  0.5000000  0.7500000  0.2500000  )
        25           Ni2 tau(  25) = (  0.7500000  0.5000000  0.2500000  )
        26           Ni2 tau(  26) = (  0.0000000  0.7500000  0.7500000  )
        27           Ni2 tau(  27) = (  0.7500000  0.0000000  0.7500000  )
        28           Ni2 tau(  28) = (  0.7500000  0.2500000  0.5000000  )
        29           Ni2 tau(  29) = (  0.7500000  0.7500000  0.0000000  )
        30           Ni1 tau(  30) = (  0.5000000  0.7500000  0.7500000  )
        31           Ni1 tau(  31) = (  0.7500000  0.5000000  0.7500000  )
        32           Ni1 tau(  32) = (  0.7500000  0.7500000  0.5000000  )
        33           O   tau(  33) = (  0.0000000  0.0000000  0.2500000  )
        34           O   tau(  34) = (  0.0000000  0.2500000  0.0000000  )
        35           O   tau(  35) = (  0.2500000  0.0000000  0.0000000  )
        36           O   tau(  36) = (  0.2500000  0.2500000  0.2500000  )
        37           O   tau(  37) = (  0.0000000  0.5000000  0.2500000  )
        38           O   tau(  38) = (  0.5000000  0.0000000  0.2500000  )
        39           O   tau(  39) = (  0.5000000  0.2500000  0.0000000  )
        40           O   tau(  40) = (  0.0000000  0.0000000  0.7500000  )
        41           O   tau(  41) = (  0.0000000  0.2500000  0.5000000  )
        42           O   tau(  42) = (  0.2500000  0.0000000  0.5000000  )
        43           O   tau(  43) = (  0.0000000  0.7500000  0.0000000  )
        44           O   tau(  44) = (  0.2500000  0.5000000  0.0000000  )
        45           O   tau(  45) = (  0.7500000  0.0000000  0.0000000  )
        46           O   tau(  46) = (  0.5000000  0.5000000  0.2500000  )
        47           O   tau(  47) = (  0.2500000  0.2500000  0.7500000  )
        48           O   tau(  48) = (  0.2500000  0.7500000  0.2500000  )
        49           O   tau(  49) = (  0.0000000  0.5000000  0.7500000  )
        50           O   tau(  50) = (  0.0000000  0.7500000  0.5000000  )
        51           O   tau(  51) = (  0.2500000  0.5000000  0.5000000  )
        52           O   tau(  52) = (  0.7500000  0.2500000  0.2500000  )
        53           O   tau(  53) = (  0.5000000  0.0000000  0.7500000  )
        54           O   tau(  54) = (  0.5000000  0.2500000  0.5000000  )
        55           O   tau(  55) = (  0.7500000  0.0000000  0.5000000  )
        56           O   tau(  56) = (  0.5000000  0.7500000  0.0000000  )
        57           O   tau(  57) = (  0.7500000  0.5000000  0.0000000  )
        58           O   tau(  58) = (  0.5000000  0.5000000  0.7500000  )
        59           O   tau(  59) = (  0.5000000  0.7500000  0.5000000  )
        60           O   tau(  60) = (  0.7500000  0.5000000  0.5000000  )
        61           O   tau(  61) = (  0.2500000  0.7500000  0.7500000  )
        62           O   tau(  62) = (  0.7500000  0.2500000  0.7500000  )
        63           O   tau(  63) = (  0.7500000  0.7500000  0.2500000  )
        64           O   tau(  64) = (  0.7500000  0.7500000  0.7500000  )

     number of k points=    64  Methfessel-Paxton smearing, width (Ry)=  0.0010
                       cart. coord. in units 2pi/alat
        k(    1) = (   0.0000000   0.0000000   0.0000000), wk =   0.0156250
        k(    2) = (   0.0000000   0.0000000   0.2500000), wk =   0.0156250
        k(    3) = (   0.0000000   0.0000000  -0.5000000), wk =   0.0156250
        k(    4) = (   0.0000000   0.0000000  -0.2500000), wk =   0.0156250
        k(    5) = (   0.0000000   0.2500000   0.0000000), wk =   0.0156250
        k(    6) = (   0.0000000   0.2500000   0.2500000), wk =   0.0156250
        k(    7) = (   0.0000000   0.2500000  -0.5000000), wk =   0.0156250
        k(    8) = (   0.0000000   0.2500000  -0.2500000), wk =   0.0156250
        k(    9) = (   0.0000000  -0.5000000   0.0000000), wk =   0.0156250
        k(   10) = (   0.0000000  -0.5000000   0.2500000), wk =   0.0156250
        k(   11) = (   0.0000000  -0.5000000  -0.5000000), wk =   0.0156250
        k(   12) = (   0.0000000  -0.5000000  -0.2500000), wk =   0.0156250
        k(   13) = (   0.0000000  -0.2500000   0.0000000), wk =   0.0156250
        k(   14) = (   0.0000000  -0.2500000   0.2500000), wk =   0.0156250
        k(   15) = (   0.0000000  -0.2500000  -0.5000000), wk =   0.0156250
        k(   16) = (   0.0000000  -0.2500000  -0.2500000), wk =   0.0156250
        k(   17) = (   0.2500000   0.0000000   0.0000000), wk =   0.0156250
        k(   18) = (   0.2500000   0.0000000   0.2500000), wk =   0.0156250
        k(   19) = (   0.2500000   0.0000000  -0.5000000), wk =   0.0156250
        k(   20) = (   0.2500000   0.0000000  -0.2500000), wk =   0.0156250
        k(   21) = (   0.2500000   0.2500000   0.0000000), wk =   0.0156250
        k(   22) = (   0.2500000   0.2500000   0.2500000), wk =   0.0156250
        k(   23) = (   0.2500000   0.2500000  -0.5000000), wk =   0.0156250
        k(   24) = (   0.2500000   0.2500000  -0.2500000), wk =   0.0156250
        k(   25) = (   0.2500000  -0.5000000   0.0000000), wk =   0.0156250
        k(   26) = (   0.2500000  -0.5000000   0.2500000), wk =   0.0156250
        k(   27) = (   0.2500000  -0.5000000  -0.5000000), wk =   0.0156250
        k(   28) = (   0.2500000  -0.5000000  -0.2500000), wk =   0.0156250
        k(   29) = (   0.2500000  -0.2500000   0.0000000), wk =   0.0156250
        k(   30) = (   0.2500000  -0.2500000   0.2500000), wk =   0.0156250
        k(   31) = (   0.2500000  -0.2500000  -0.5000000), wk =   0.0156250
        k(   32) = (   0.2500000  -0.2500000  -0.2500000), wk =   0.0156250
        k(   33) = (  -0.5000000   0.0000000   0.0000000), wk =   0.0156250
        k(   34) = (  -0.5000000   0.0000000   0.2500000), wk =   0.0156250
        k(   35) = (  -0.5000000   0.0000000  -0.5000000), wk =   0.0156250
        k(   36) = (  -0.5000000   0.0000000  -0.2500000), wk =   0.0156250
        k(   37) = (  -0.5000000   0.2500000   0.0000000), wk =   0.0156250
        k(   38) = (  -0.5000000   0.2500000   0.2500000), wk =   0.0156250
        k(   39) = (  -0.5000000   0.2500000  -0.5000000), wk =   0.0156250
        k(   40) = (  -0.5000000   0.2500000  -0.2500000), wk =   0.0156250
        k(   41) = (  -0.5000000  -0.5000000   0.0000000), wk =   0.0156250
        k(   42) = (  -0.5000000  -0.5000000   0.2500000), wk =   0.0156250
        k(   43) = (  -0.5000000  -0.5000000  -0.5000000), wk =   0.0156250
        k(   44) = (  -0.5000000  -0.5000000  -0.2500000), wk =   0.0156250
        k(   45) = (  -0.5000000  -0.2500000   0.0000000), wk =   0.0156250
        k(   46) = (  -0.5000000  -0.2500000   0.2500000), wk =   0.0156250
        k(   47) = (  -0.5000000  -0.2500000  -0.5000000), wk =   0.0156250
        k(   48) = (  -0.5000000  -0.2500000  -0.2500000), wk =   0.0156250
        k(   49) = (  -0.2500000   0.0000000   0.0000000), wk =   0.0156250
        k(   50) = (  -0.2500000   0.0000000   0.2500000), wk =   0.0156250
        k(   51) = (  -0.2500000   0.0000000  -0.5000000), wk =   0.0156250
        k(   52) = (  -0.2500000   0.0000000  -0.2500000), wk =   0.0156250
        k(   53) = (  -0.2500000   0.2500000   0.0000000), wk =   0.0156250
        k(   54) = (  -0.2500000   0.2500000   0.2500000), wk =   0.0156250
        k(   55) = (  -0.2500000   0.2500000  -0.5000000), wk =   0.0156250
        k(   56) = (  -0.2500000   0.2500000  -0.2500000), wk =   0.0156250
        k(   57) = (  -0.2500000  -0.5000000   0.0000000), wk =   0.0156250
        k(   58) = (  -0.2500000  -0.5000000   0.2500000), wk =   0.0156250
        k(   59) = (  -0.2500000  -0.5000000  -0.5000000), wk =   0.0156250
        k(   60) = (  -0.2500000  -0.5000000  -0.2500000), wk =   0.0156250
        k(   61) = (  -0.2500000  -0.2500000   0.0000000), wk =   0.0156250
        k(   62) = (  -0.2500000  -0.2500000   0.2500000), wk =   0.0156250
        k(   63) = (  -0.2500000  -0.2500000  -0.5000000), wk =   0.0156250
        k(   64) = (  -0.2500000  -0.2500000  -0.2500000), wk =   0.0156250

                       cryst. coord.
        k(    1) = (   0.0000000   0.0000000   0.0000000), wk =   0.0156250
        k(    2) = (   0.0000000   0.0000000   0.2500000), wk =   0.0156250
        k(    3) = (   0.0000000   0.0000000  -0.5000000), wk =   0.0156250
        k(    4) = (   0.0000000   0.0000000  -0.2500000), wk =   0.0156250
        k(    5) = (   0.0000000   0.2500000   0.0000000), wk =   0.0156250
        k(    6) = (   0.0000000   0.2500000   0.2500000), wk =   0.0156250
        k(    7) = (   0.0000000   0.2500000  -0.5000000), wk =   0.0156250
        k(    8) = (   0.0000000   0.2500000  -0.2500000), wk =   0.0156250
        k(    9) = (   0.0000000  -0.5000000   0.0000000), wk =   0.0156250
        k(   10) = (   0.0000000  -0.5000000   0.2500000), wk =   0.0156250
        k(   11) = (   0.0000000  -0.5000000  -0.5000000), wk =   0.0156250
        k(   12) = (   0.0000000  -0.5000000  -0.2500000), wk =   0.0156250
        k(   13) = (   0.0000000  -0.2500000   0.0000000), wk =   0.0156250
        k(   14) = (   0.0000000  -0.2500000   0.2500000), wk =   0.0156250
        k(   15) = (   0.0000000  -0.2500000  -0.5000000), wk =   0.0156250
        k(   16) = (   0.0000000  -0.2500000  -0.2500000), wk =   0.0156250
        k(   17) = (   0.2500000   0.0000000   0.0000000), wk =   0.0156250
        k(   18) = (   0.2500000   0.0000000   0.2500000), wk =   0.0156250
        k(   19) = (   0.2500000   0.0000000  -0.5000000), wk =   0.0156250
        k(   20) = (   0.2500000   0.0000000  -0.2500000), wk =   0.0156250
        k(   21) = (   0.2500000   0.2500000   0.0000000), wk =   0.0156250
        k(   22) = (   0.2500000   0.2500000   0.2500000), wk =   0.0156250
        k(   23) = (   0.2500000   0.2500000  -0.5000000), wk =   0.0156250
        k(   24) = (   0.2500000   0.2500000  -0.2500000), wk =   0.0156250
        k(   25) = (   0.2500000  -0.5000000   0.0000000), wk =   0.0156250
        k(   26) = (   0.2500000  -0.5000000   0.2500000), wk =   0.0156250
        k(   27) = (   0.2500000  -0.5000000  -0.5000000), wk =   0.0156250
        k(   28) = (   0.2500000  -0.5000000  -0.2500000), wk =   0.0156250
        k(   29) = (   0.2500000  -0.2500000   0.0000000), wk =   0.0156250
        k(   30) = (   0.2500000  -0.2500000   0.2500000), wk =   0.0156250
        k(   31) = (   0.2500000  -0.2500000  -0.5000000), wk =   0.0156250
        k(   32) = (   0.2500000  -0.2500000  -0.2500000), wk =   0.0156250
        k(   33) = (  -0.5000000   0.0000000   0.0000000), wk =   0.0156250
        k(   34) = (  -0.5000000   0.0000000   0.2500000), wk =   0.0156250
        k(   35) = (  -0.5000000   0.0000000  -0.5000000), wk =   0.0156250
        k(   36) = (  -0.5000000   0.0000000  -0.2500000), wk =   0.0156250
        k(   37) = (  -0.5000000   0.2500000   0.0000000), wk =   0.0156250
        k(   38) = (  -0.5000000   0.2500000   0.2500000), wk =   0.0156250
        k(   39) = (  -0.5000000   0.2500000  -0.5000000), wk =   0.0156250
        k(   40) = (  -0.5000000   0.2500000  -0.2500000), wk =   0.0156250
        k(   41) = (  -0.5000000  -0.5000000   0.0000000), wk =   0.0156250
        k(   42) = (  -0.5000000  -0.5000000   0.2500000), wk =   0.0156250
        k(   43) = (  -0.5000000  -0.5000000  -0.5000000), wk =   0.0156250
        k(   44) = (  -0.5000000  -0.5000000  -0.2500000), wk =   0.0156250
        k(   45) = (  -0.5000000  -0.2500000   0.0000000), wk =   0.0156250
        k(   46) = (  -0.5000000  -0.2500000   0.2500000), wk =   0.0156250
        k(   47) = (  -0.5000000  -0.2500000  -0.5000000), wk =   0.0156250
        k(   48) = (  -0.5000000  -0.2500000  -0.2500000), wk =   0.0156250
        k(   49) = (  -0.2500000   0.0000000   0.0000000), wk =   0.0156250
        k(   50) = (  -0.2500000   0.0000000   0.2500000), wk =   0.0156250
        k(   51) = (  -0.2500000   0.0000000  -0.5000000), wk =   0.0156250
        k(   52) = (  -0.2500000   0.0000000  -0.2500000), wk =   0.0156250
        k(   53) = (  -0.2500000   0.2500000   0.0000000), wk =   0.0156250
        k(   54) = (  -0.2500000   0.2500000   0.2500000), wk =   0.0156250
        k(   55) = (  -0.2500000   0.2500000  -0.5000000), wk =   0.0156250
        k(   56) = (  -0.2500000   0.2500000  -0.2500000), wk =   0.0156250
        k(   57) = (  -0.2500000  -0.5000000   0.0000000), wk =   0.0156250
        k(   58) = (  -0.2500000  -0.5000000   0.2500000), wk =   0.0156250
        k(   59) = (  -0.2500000  -0.5000000  -0.5000000), wk =   0.0156250
        k(   60) = (  -0.2500000  -0.5000000  -0.2500000), wk =   0.0156250
        k(   61) = (  -0.2500000  -0.2500000   0.0000000), wk =   0.0156250
        k(   62) = (  -0.2500000  -0.2500000   0.2500000), wk =   0.0156250
        k(   63) = (  -0.2500000  -0.2500000  -0.5000000), wk =   0.0156250
        k(   64) = (  -0.2500000  -0.2500000  -0.2500000), wk =   0.0156250

     Dense  grid:   251967 G-vectors     FFT dimensions: (  80,  80,  80)

     Smooth grid:   137059 G-vectors     FFT dimensions: (  64,  64,  64)

     Dynamical RAM for                 wfc:       5.00 MB

     Dynamical RAM for     wfc (w. buffer):      25.01 MB

     Dynamical RAM for             U proj.:       2.61 MB

     Dynamical RAM for  U proj. (w. buff.):      13.04 MB

     Dynamical RAM for           str. fact:       0.18 MB

     Dynamical RAM for           local pot:       0.00 MB

     Dynamical RAM for          nlocal pot:       3.39 MB

     Dynamical RAM for                qrad:       9.42 MB

     Dynamical RAM for          rho,v,vnew:       1.89 MB

     Dynamical RAM for               rhoin:       0.63 MB

     Dynamical RAM for            rho*nmix:       3.85 MB

     Dynamical RAM for           G-vectors:       0.24 MB

     Dynamical RAM for          h,s,v(r/c):      11.04 MB

     Dynamical RAM for          <psi|beta>:      15.59 MB

     Dynamical RAM for                 psi:      20.01 MB

     Dynamical RAM for                hpsi:      20.01 MB

     Dynamical RAM for                spsi:      20.01 MB

     Dynamical RAM for      wfcinit/wfcrot:      26.02 MB

     Dynamical RAM for           addusdens:       1.06 MB

     Estimated static dynamical RAM per process >      58.68 MB

     Estimated max dynamical RAM per process >     145.35 MB

     Estimated total dynamical RAM >     145.35 GB
     Generating pointlists ...
     new r_m :   0.1031 (alat units)  1.6386 (a.u.) for type    1
     new r_m :   0.1031 (alat units)  1.6386 (a.u.) for type    2
     new r_m :   0.1031 (alat units)  1.6386 (a.u.) for type    3

     Check: negative core charge=   -0.000421

     The initial density is read from file :
     ./tmp/NiO_nc.save/charge-density

 --- in v_hubbard ---
Hub. E (dc, noflip, flip, total)  590.3366 593.7944  -0.0000   3.4578
Hub. E (const, total)      0.00000000     3.45779044
 -------
     Number of +U iterations with fixed ns =  0
     Starting occupations:
 --- enter write_ns ---
 LDA+U parameters:
U(  1) =   8.0000   J(  1) =   0.0000   B(  1) =   0.0000
U(  2) =   8.0000   J(  2) =   0.0000   B(  2) =   0.0000
atom    1   Tr[ns(na)] (up, down, total) =   4.99148  3.44575  8.43722
 eigenvalues: 
  0.227  0.227  0.997  0.997  0.997  0.997  0.997  0.999  0.999  0.999
 eigenvectors:
  0.000  0.000  0.304  0.696  0.000  0.000  0.000  0.000  0.000  0.000
  0.000  0.000  0.000  0.000  0.000  0.000  0.000  0.557  0.110  0.333
  0.000  0.000  0.000  0.000  0.000  0.000  0.000  0.427  0.240  0.333
  0.000  0.000  0.696  0.304  0.000  0.000  0.000  0.000  0.000  0.000
  0.000  0.000  0.000  0.000  0.000  0.000  0.000  0.016  0.650  0.333
  0.727  0.273  0.000  0.000  0.000  0.000  0.000  0.000  0.000  0.000
  0.000  0.000  0.000  0.000  0.256  0.411  0.333  0.000  0.000  0.000
  0.000  0.000  0.000  0.000  0.095  0.571  0.333  0.000  0.000  0.000
  0.273  0.727  0.000  0.000  0.000  0.000  0.000  0.000  0.000  0.000
  0.000  0.000  0.000  0.000  0.649  0.018  0.333  0.000  0.000  0.000
 occupations, | n_(i1, i2)^(sigma1, sigma2) |:
  0.997  0.000  0.000  0.000  0.000  0.000  0.000  0.000  0.000  0.000
  0.000  0.999  0.000  0.000  0.000  0.000  0.000  0.000  0.000  0.000
  0.000  0.000  0.999  0.000  0.000  0.000  0.000  0.000  0.000  0.000
  0.000  0.000  0.000  0.997  0.000  0.000  0.000  0.000  0.000  0.000
  0.000  0.000  0.000  0.000  0.999  0.000  0.000  0.000  0.000  0.000
  0.000  0.000  0.000  0.000  0.000  0.227  0.000  0.000  0.000  0.000
  0.000  0.000  0.000  0.000  0.000  0.000  0.997  0.000  0.000  0.000
  0.000  0.000  0.000  0.000  0.000  0.000  0.000  0.997  0.000  0.000
  0.000  0.000  0.000  0.000  0.000  0.000  0.000  0.000  0.227  0.000
  0.000  0.000  0.000  0.000  0.000  0.000  0.000  0.000  0.000  0.997
atomic mx, my, mz =     0.0000000000042654   -0.0000000000078809    1.5457293607951410
atom    2   Tr[ns(na)] (up, down, total) =   3.44575  4.99148  8.43722
 eigenvalues: 
  0.227  0.227  0.997  0.997  0.997  0.997  0.997  0.999  0.999  0.999
 eigenvectors:
  0.955  0.045  0.000  0.000  0.000  0.000  0.000  0.000  0.000  0.000
  0.000  0.000  0.000  0.000  0.499  0.168  0.333  0.000  0.000  0.000
  0.000  0.000  0.000  0.000  0.319  0.348  0.333  0.000  0.000  0.000
  0.045  0.955  0.000  0.000  0.000  0.000  0.000  0.000  0.000  0.000
  0.000  0.000  0.000  0.000  0.182  0.484  0.333  0.000  0.000  0.000
  0.000  0.000  0.477  0.523  0.000  0.000  0.000  0.000  0.000  0.000
  0.000  0.000  0.000  0.000  0.000  0.000  0.000  0.002  0.664  0.333
  0.000  0.000  0.000  0.000  0.000  0.000  0.000  0.474  0.193  0.333
  0.000  0.000  0.523  0.477  0.000  0.000  0.000  0.000  0.000  0.000
  0.000  0.000  0.000  0.000  0.000  0.000  0.000  0.524  0.143  0.333
 occupations, | n_(i1, i2)^(sigma1, sigma2) |:
  0.227  0.000  0.000  0.000  0.000  0.000  0.000  0.000  0.000  0.000
  0.000  0.997  0.000  0.000  0.000  0.000  0.000  0.000  0.000  0.000
  0.000  0.000  0.997  0.000  0.000  0.000  0.000  0.000  0.000  0.000
  0.000  0.000  0.000  0.227  0.000  0.000  0.000  0.000  0.000  0.000
  0.000  0.000  0.000  0.000  0.997  0.000  0.000  0.000  0.000  0.000
  0.000  0.000  0.000  0.000  0.000  0.997  0.000  0.000  0.000  0.000
  0.000  0.000  0.000  0.000  0.000  0.000  0.999  0.000  0.000  0.000
  0.000  0.000  0.000  0.000  0.000  0.000  0.000  0.999  0.000  0.000
  0.000  0.000  0.000  0.000  0.000  0.000  0.000  0.000  0.997  0.000
  0.000  0.000  0.000  0.000  0.000  0.000  0.000  0.000  0.000  0.999
atomic mx, my, mz =     0.0000000000023935    0.0000000000009462   -1.5457293618553161
atom    3   Tr[ns(na)] (up, down, total) =   3.44575  4.99148  8.43722
 eigenvalues: 
  0.227  0.227  0.997  0.997  0.997  0.997  0.997  0.999  0.999  0.999
 eigenvectors:
  0.541  0.459  0.000  0.000  0.000  0.000  0.000  0.000  0.000  0.000
  0.000  0.000  0.000  0.000  0.052  0.615  0.333  0.000  0.000  0.000
  0.000  0.000  0.000  0.000  0.319  0.347  0.333  0.000  0.000  0.000
  0.459  0.541  0.000  0.000  0.000  0.000  0.000  0.000  0.000  0.000
  0.000  0.000  0.000  0.000  0.629  0.038  0.333  0.000  0.000  0.000
  0.000  0.000  0.566  0.434  0.000  0.000  0.000  0.000  0.000  0.000
  0.000  0.000  0.000  0.000  0.000  0.000  0.000  0.023  0.644  0.333
  0.000  0.000  0.000  0.000  0.000  0.000  0.000  0.589  0.077  0.333
  0.000  0.000  0.434  0.566  0.000  0.000  0.000  0.000  0.000  0.000
  0.000  0.000  0.000  0.000  0.000  0.000  0.000  0.387  0.279  0.333
 occupations, | n_(i1, i2)^(sigma1, sigma2) |:
  0.227  0.000  0.000  0.000  0.000  0.000  0.000  0.000  0.000  0.000
  0.000  0.997  0.000  0.000  0.000  0.000  0.000  0.000  0.000  0.000
  0.000  0.000  0.997  0.000  0.000  0.000  0.000  0.000  0.000  0.000
  0.000  0.000  0.000  0.227  0.000  0.000  0.000  0.000  0.000  0.000
  0.000  0.000  0.000  0.000  0.997  0.000  0.000  0.000  0.000  0.000
  0.000  0.000  0.000  0.000  0.000  0.997  0.000  0.000  0.000  0.000
  0.000  0.000  0.000  0.000  0.000  0.000  0.999  0.000  0.000  0.000
  0.000  0.000  0.000  0.000  0.000  0.000  0.000  0.999  0.000  0.000
  0.000  0.000  0.000  0.000  0.000  0.000  0.000  0.000  0.997  0.000
  0.000  0.000  0.000  0.000  0.000  0.000  0.000  0.000  0.000  0.999
atomic mx, my, mz =    -0.0000000000025662   -0.0000000000045398   -1.5457293564550310
atom    4   Tr[ns(na)] (up, down, total) =   3.44575  4.99148  8.43722
 eigenvalues: 
  0.227  0.227  0.997  0.997  0.997  0.997  0.997  0.999  0.999  0.999
 eigenvectors:
  0.575  0.425  0.000  0.000  0.000  0.000  0.000  0.000  0.000  0.000
  0.000  0.000  0.000  0.000  0.003  0.663  0.333  0.000  0.000  0.000
  0.000  0.000  0.000  0.000  0.528  0.138  0.333  0.000  0.000  0.000
  0.425  0.575  0.000  0.000  0.000  0.000  0.000  0.000  0.000  0.000
  0.000  0.000  0.000  0.000  0.469  0.198  0.333  0.000  0.000  0.000
  0.000  0.000  0.120  0.880  0.000  0.000  0.000  0.000  0.000  0.000
  0.000  0.000  0.000  0.000  0.000  0.000  0.000  0.092  0.575  0.333
  0.000  0.000  0.000  0.000  0.000  0.000  0.000  0.623  0.044  0.333
  0.000  0.000  0.880  0.120  0.000  0.000  0.000  0.000  0.000  0.000
  0.000  0.000  0.000  0.000  0.000  0.000  0.000  0.286  0.381  0.333
 occupations, | n_(i1, i2)^(sigma1, sigma2) |:
  0.227  0.000  0.000  0.000  0.000  0.000  0.000  0.000  0.000  0.000
  0.000  0.997  0.000  0.000  0.000  0.000  0.000  0.000  0.000  0.000
  0.000  0.000  0.997  0.000  0.000  0.000  0.000  0.000  0.000  0.000
  0.000  0.000  0.000  0.227  0.000  0.000  0.000  0.000  0.000  0.000
  0.000  0.000  0.000  0.000  0.997  0.000  0.000  0.000  0.000  0.000
  0.000  0.000  0.000  0.000  0.000  0.997  0.000  0.000  0.000  0.000
  0.000  0.000  0.000  0.000  0.000  0.000  0.999  0.000  0.000  0.000
  0.000  0.000  0.000  0.000  0.000  0.000  0.000  0.999  0.000  0.000
  0.000  0.000  0.000  0.000  0.000  0.000  0.000  0.000  0.997  0.000
  0.000  0.000  0.000  0.000  0.000  0.000  0.000  0.000  0.000  0.999
atomic mx, my, mz =     0.0000000000027369   -0.0000000000036031   -1.5457293664672009
atom    5   Tr[ns(na)] (up, down, total) =   3.44575  4.99148  8.43722
 eigenvalues: 
  0.227  0.227  0.997  0.997  0.997  0.997  0.997  0.999  0.999  0.999
 eigenvectors:
  0.042  0.958  0.000  0.000  0.000  0.000  0.000  0.000  0.000  0.000
  0.000  0.000  0.000  0.000  0.518  0.148  0.333  0.000  0.000  0.000
  0.000  0.000  0.000  0.000  0.481  0.186  0.333  0.000  0.000  0.000
  0.958  0.042  0.000  0.000  0.000  0.000  0.000  0.000  0.000  0.000
  0.000  0.000  0.000  0.000  0.001  0.666  0.333  0.000  0.000  0.000
  0.000  0.000  0.887  0.113  0.000  0.000  0.000  0.000  0.000  0.000
  0.000  0.000  0.000  0.000  0.000  0.000  0.000  0.453  0.214  0.333
  0.000  0.000  0.000  0.000  0.000  0.000  0.000  0.529  0.138  0.333
  0.000  0.000  0.113  0.887  0.000  0.000  0.000  0.000  0.000  0.000
  0.000  0.000  0.000  0.000  0.000  0.000  0.000  0.018  0.648  0.333
 occupations, | n_(i1, i2)^(sigma1, sigma2) |:
  0.227  0.000  0.000  0.000  0.000  0.000  0.000  0.000  0.000  0.000
  0.000  0.997  0.000  0.000  0.000  0.000  0.000  0.000  0.000  0.000
  0.000  0.000  0.997  0.000  0.000  0.000  0.000  0.000  0.000  0.000
  0.000  0.000  0.000  0.227  0.000  0.000  0.000  0.000  0.000  0.000
  0.000  0.000  0.000  0.000  0.997  0.000  0.000  0.000  0.000  0.000
  0.000  0.000  0.000  0.000  0.000  0.997  0.000  0.000  0.000  0.000
  0.000  0.000  0.000  0.000  0.000  0.000  0.999  0.000  0.000  0.000
  0.000  0.000  0.000  0.000  0.000  0.000  0.000  0.999  0.000  0.000
  0.000  0.000  0.000  0.000  0.000  0.000  0.000  0.000  0.997  0.000
  0.000  0.000  0.000  0.000  0.000  0.000  0.000  0.000  0.000  0.999
atomic mx, my, mz =     0.0000000000010684   -0.0000000000008371   -1.5457293613929388
atom    6   Tr[ns(na)] (up, down, total) =   3.44575  4.99148  8.43722
 eigenvalues: 
  0.227  0.227  0.997  0.997  0.997  0.997  0.997  0.999  0.999  0.999
 eigenvectors:
  0.942  0.058  0.000  0.000  0.000  0.000  0.000  0.000  0.000  0.000
  0.000  0.000  0.000  0.000  0.046  0.621  0.333  0.000  0.000  0.000
  0.000  0.000  0.000  0.000  0.491  0.175  0.333  0.000  0.000  0.000
  0.058  0.942  0.000  0.000  0.000  0.000  0.000  0.000  0.000  0.000
  0.000  0.000  0.000  0.000  0.463  0.204  0.333  0.000  0.000  0.000
  0.000  0.000  0.078  0.922  0.000  0.000  0.000  0.000  0.000  0.000
  0.000  0.000  0.000  0.000  0.000  0.000  0.000  0.483  0.184  0.333
  0.000  0.000  0.000  0.000  0.000  0.000  0.000  0.412  0.255  0.333
  0.000  0.000  0.922  0.078  0.000  0.000  0.000  0.000  0.000  0.000
  0.000  0.000  0.000  0.000  0.000  0.000  0.000  0.105  0.561  0.333
 occupations, | n_(i1, i2)^(sigma1, sigma2) |:
  0.227  0.000  0.000  0.000  0.000  0.000  0.000  0.000  0.000  0.000
  0.000  0.997  0.000  0.000  0.000  0.000  0.000  0.000  0.000  0.000
  0.000  0.000  0.997  0.000  0.000  0.000  0.000  0.000  0.000  0.000
  0.000  0.000  0.000  0.227  0.000  0.000  0.000  0.000  0.000  0.000
  0.000  0.000  0.000  0.000  0.997  0.000  0.000  0.000  0.000  0.000
  0.000  0.000  0.000  0.000  0.000  0.997  0.000  0.000  0.000  0.000
  0.000  0.000  0.000  0.000  0.000  0.000  0.999  0.000  0.000  0.000
  0.000  0.000  0.000  0.000  0.000  0.000  0.000  0.999  0.000  0.000
  0.000  0.000  0.000  0.000  0.000  0.000  0.000  0.000  0.997  0.000
  0.000  0.000  0.000  0.000  0.000  0.000  0.000  0.000  0.000  0.999
atomic mx, my, mz =     0.0000000000033445   -0.0000000000025290   -1.5457293598954118
atom    7   Tr[ns(na)] (up, down, total) =   3.44575  4.99148  8.43722
 eigenvalues: 
  0.227  0.227  0.997  0.997  0.997  0.997  0.997  0.999  0.999  0.999
 eigenvectors:
  0.757  0.243  0.000  0.000  0.000  0.000  0.000  0.000  0.000  0.000
  0.000  0.000  0.000  0.000  0.563  0.103  0.333  0.000  0.000  0.000
  0.000  0.000  0.000  0.000  0.012  0.655  0.333  0.000  0.000  0.000
  0.243  0.757  0.000  0.000  0.000  0.000  0.000  0.000  0.000  0.000
  0.000  0.000  0.000  0.000  0.425  0.242  0.333  0.000  0.000  0.000
  0.000  0.000  0.093  0.907  0.000  0.000  0.000  0.000  0.000  0.000
  0.000  0.000  0.000  0.000  0.000  0.000  0.000  0.375  0.291  0.333
  0.000  0.000  0.000  0.000  0.000  0.000  0.000  0.027  0.640  0.333
  0.000  0.000  0.907  0.093  0.000  0.000  0.000  0.000  0.000  0.000
  0.000  0.000  0.000  0.000  0.000  0.000  0.000  0.598  0.069  0.333
 occupations, | n_(i1, i2)^(sigma1, sigma2) |:
  0.227  0.000  0.000  0.000  0.000  0.000  0.000  0.000  0.000  0.000
  0.000  0.997  0.000  0.000  0.000  0.000  0.000  0.000  0.000  0.000
  0.000  0.000  0.997  0.000  0.000  0.000  0.000  0.000  0.000  0.000
  0.000  0.000  0.000  0.227  0.000  0.000  0.000  0.000  0.000  0.000
  0.000  0.000  0.000  0.000  0.997  0.000  0.000  0.000  0.000  0.000
  0.000  0.000  0.000  0.000  0.000  0.997  0.000  0.000  0.000  0.000
  0.000  0.000  0.000  0.000  0.000  0.000  0.999  0.000  0.000  0.000
  0.000  0.000  0.000  0.000  0.000  0.000  0.000  0.999  0.000  0.000
  0.000  0.000  0.000  0.000  0.000  0.000  0.000  0.000  0.997  0.000
  0.000  0.000  0.000  0.000  0.000  0.000  0.000  0.000  0.000  0.999
atomic mx, my, mz =    -0.0000000000013201   -0.0000000000026290   -1.5457293579332292
atom    8   Tr[ns(na)] (up, down, total) =   4.99148  3.44575  8.43722
 eigenvalues: 
  0.227  0.227  0.997  0.997  0.997  0.997  0.997  0.999  0.999  0.999
 eigenvectors:
  0.000  0.000  0.219  0.781  0.000  0.000  0.000  0.000  0.000  0.000
  0.000  0.000  0.000  0.000  0.000  0.000  0.000  0.580  0.087  0.333
  0.000  0.000  0.000  0.000  0.000  0.000  0.000  0.036  0.631  0.333
  0.000  0.000  0.781  0.219  0.000  0.000  0.000  0.000  0.000  0.000
  0.000  0.000  0.000  0.000  0.000  0.000  0.000  0.384  0.282  0.333
  0.742  0.258  0.000  0.000  0.000  0.000  0.000  0.000  0.000  0.000
  0.000  0.000  0.000  0.000  0.544  0.123  0.333  0.000  0.000  0.000
  0.000  0.000  0.000  0.000  0.098  0.569  0.333  0.000  0.000  0.000
  0.258  0.742  0.000  0.000  0.000  0.000  0.000  0.000  0.000  0.000
  0.000  0.000  0.000  0.000  0.359  0.308  0.333  0.000  0.000  0.000
 occupations, | n_(i1, i2)^(sigma1, sigma2) |:
  0.997  0.000  0.000  0.000  0.000  0.000  0.000  0.000  0.000  0.000
  0.000  0.999  0.000  0.000  0.000  0.000  0.000  0.000  0.000  0.000
  0.000  0.000  0.999  0.000  0.000  0.000  0.000  0.000  0.000  0.000
  0.000  0.000  0.000  0.997  0.000  0.000  0.000  0.000  0.000  0.000
  0.000  0.000  0.000  0.000  0.999  0.000  0.000  0.000  0.000  0.000
  0.000  0.000  0.000  0.000  0.000  0.227  0.000  0.000  0.000  0.000
  0.000  0.000  0.000  0.000  0.000  0.000  0.997  0.000  0.000  0.000
  0.000  0.000  0.000  0.000  0.000  0.000  0.000  0.997  0.000  0.000
  0.000  0.000  0.000  0.000  0.000  0.000  0.000  0.000  0.227  0.000
  0.000  0.000  0.000  0.000  0.000  0.000  0.000  0.000  0.000  0.997
atomic mx, my, mz =    -0.0000000000011860   -0.0000000000011482    1.5457293604640479
atom    9   Tr[ns(na)] (up, down, total) =   4.99148  3.44575  8.43722
 eigenvalues: 
  0.227  0.227  0.997  0.997  0.997  0.997  0.997  0.999  0.999  0.999
 eigenvectors:
  0.000  0.000  0.824  0.176  0.000  0.000  0.000  0.000  0.000  0.000
  0.000  0.000  0.000  0.000  0.000  0.000  0.000  0.155  0.512  0.333
  0.000  0.000  0.000  0.000  0.000  0.000  0.000  0.230  0.436  0.333
  0.000  0.000  0.176  0.824  0.000  0.000  0.000  0.000  0.000  0.000
  0.000  0.000  0.000  0.000  0.000  0.000  0.000  0.615  0.052  0.333
  0.129  0.871  0.000  0.000  0.000  0.000  0.000  0.000  0.000  0.000
  0.000  0.000  0.000  0.000  0.378  0.289  0.333  0.000  0.000  0.000
  0.000  0.000  0.000  0.000  0.026  0.641  0.333  0.000  0.000  0.000
  0.871  0.129  0.000  0.000  0.000  0.000  0.000  0.000  0.000  0.000
  0.000  0.000  0.000  0.000  0.596  0.070  0.333  0.000  0.000  0.000
 occupations, | n_(i1, i2)^(sigma1, sigma2) |:
  0.997  0.000  0.000  0.000  0.000  0.000  0.000  0.000  0.000  0.000
  0.000  0.999  0.000  0.000  0.000  0.000  0.000  0.000  0.000  0.000
  0.000  0.000  0.999  0.000  0.000  0.000  0.000  0.000  0.000  0.000
  0.000  0.000  0.000  0.997  0.000  0.000  0.000  0.000  0.000  0.000
  0.000  0.000  0.000  0.000  0.999  0.000  0.000  0.000  0.000  0.000
  0.000  0.000  0.000  0.000  0.000  0.227  0.000  0.000  0.000  0.000
  0.000  0.000  0.000  0.000  0.000  0.000  0.997  0.000  0.000  0.000
  0.000  0.000  0.000  0.000  0.000  0.000  0.000  0.997  0.000  0.000
  0.000  0.000  0.000  0.000  0.000  0.000  0.000  0.000  0.227  0.000
  0.000  0.000  0.000  0.000  0.000  0.000  0.000  0.000  0.000  0.997
atomic mx, my, mz =     0.0000000000004908   -0.0000000000002421    1.5457293652409709
atom   10   Tr[ns(na)] (up, down, total) =   4.99148  3.44575  8.43722
 eigenvalues: 
  0.227  0.227  0.997  0.997  0.997  0.997  0.997  0.999  0.999  0.999
 eigenvectors:
  0.000  0.000  0.312  0.688  0.000  0.000  0.000  0.000  0.000  0.000
  0.000  0.000  0.000  0.000  0.000  0.000  0.000  0.139  0.527  0.333
  0.000  0.000  0.000  0.000  0.000  0.000  0.000  0.639  0.028  0.333
  0.000  0.000  0.688  0.312  0.000  0.000  0.000  0.000  0.000  0.000
  0.000  0.000  0.000  0.000  0.000  0.000  0.000  0.222  0.445  0.333
  0.384  0.616  0.000  0.000  0.000  0.000  0.000  0.000  0.000  0.000
  0.000  0.000  0.000  0.000  0.074  0.593  0.333  0.000  0.000  0.000
  0.000  0.000  0.000  0.000  0.560  0.107  0.333  0.000  0.000  0.000
  0.616  0.384  0.000  0.000  0.000  0.000  0.000  0.000  0.000  0.000
  0.000  0.000  0.000  0.000  0.366  0.301  0.333  0.000  0.000  0.000
 occupations, | n_(i1, i2)^(sigma1, sigma2) |:
  0.997  0.000  0.000  0.000  0.000  0.000  0.000  0.000  0.000  0.000
  0.000  0.999  0.000  0.000  0.000  0.000  0.000  0.000  0.000  0.000
  0.000  0.000  0.999  0.000  0.000  0.000  0.000  0.000  0.000  0.000
  0.000  0.000  0.000  0.997  0.000  0.000  0.000  0.000  0.000  0.000
  0.000  0.000  0.000  0.000  0.999  0.000  0.000  0.000  0.000  0.000
  0.000  0.000  0.000  0.000  0.000  0.227  0.000  0.000  0.000  0.000
  0.000  0.000  0.000  0.000  0.000  0.000  0.997  0.000  0.000  0.000
  0.000  0.000  0.000  0.000  0.000  0.000  0.000  0.997  0.000  0.000
  0.000  0.000  0.000  0.000  0.000  0.000  0.000  0.000  0.227  0.000
  0.000  0.000  0.000  0.000  0.000  0.000  0.000  0.000  0.000  0.997
atomic mx, my, mz =     0.0000000000013322    0.0000000000014628    1.5457293620348747
atom   11   Tr[ns(na)] (up, down, total) =   4.99148  3.44575  8.43722
 eigenvalues: 
  0.227  0.227  0.997  0.997  0.997  0.997  0.997  0.999  0.999  0.999
 eigenvectors:
  0.000  0.000  0.124  0.876  0.000  0.000  0.000  0.000  0.000  0.000
  0.000  0.000  0.000  0.000  0.000  0.000  0.000  0.065  0.601  0.333
  0.000  0.000  0.000  0.000  0.000  0.000  0.000  0.605  0.062  0.333
  0.000  0.000  0.876  0.124  0.000  0.000  0.000  0.000  0.000  0.000
  0.000  0.000  0.000  0.000  0.000  0.000  0.000  0.330  0.337  0.333
  0.490  0.510  0.000  0.000  0.000  0.000  0.000  0.000  0.000  0.000
  0.000  0.000  0.000  0.000  0.085  0.582  0.333  0.000  0.000  0.000
  0.000  0.000  0.000  0.000  0.585  0.082  0.333  0.000  0.000  0.000
  0.510  0.490  0.000  0.000  0.000  0.000  0.000  0.000  0.000  0.000
  0.000  0.000  0.000  0.000  0.330  0.337  0.333  0.000  0.000  0.000
 occupations, | n_(i1, i2)^(sigma1, sigma2) |:
  0.997  0.000  0.000  0.000  0.000  0.000  0.000  0.000  0.000  0.000
  0.000  0.999  0.000  0.000  0.000  0.000  0.000  0.000  0.000  0.000
  0.000  0.000  0.999  0.000  0.000  0.000  0.000  0.000  0.000  0.000
  0.000  0.000  0.000  0.997  0.000  0.000  0.000  0.000  0.000  0.000
  0.000  0.000  0.000  0.000  0.999  0.000  0.000  0.000  0.000  0.000
  0.000  0.000  0.000  0.000  0.000  0.227  0.000  0.000  0.000  0.000
  0.000  0.000  0.000  0.000  0.000  0.000  0.997  0.000  0.000  0.000
  0.000  0.000  0.000  0.000  0.000  0.000  0.000  0.997  0.000  0.000
  0.000  0.000  0.000  0.000  0.000  0.000  0.000  0.000  0.227  0.000
  0.000  0.000  0.000  0.000  0.000  0.000  0.000  0.000  0.000  0.997
atomic mx, my, mz =     0.0000000000066743   -0.0000000000055813    1.5457293614424108
atom   12   Tr[ns(na)] (up, down, total) =   4.99148  3.44575  8.43722
 eigenvalues: 
  0.227  0.227  0.997  0.997  0.997  0.997  0.997  0.999  0.999  0.999
 eigenvectors:
  0.000  0.000  0.996  0.004  0.000  0.000  0.000  0.000  0.000  0.000
  0.000  0.000  0.000  0.000  0.000  0.000  0.000  0.648  0.018  0.333
  0.000  0.000  0.000  0.000  0.000  0.000  0.000  0.267  0.400  0.333
  0.000  0.000  0.004  0.996  0.000  0.000  0.000  0.000  0.000  0.000
  0.000  0.000  0.000  0.000  0.000  0.000  0.000  0.085  0.582  0.333
  0.051  0.949  0.000  0.000  0.000  0.000  0.000  0.000  0.000  0.000
  0.000  0.000  0.000  0.000  0.620  0.047  0.333  0.000  0.000  0.000
  0.000  0.000  0.000  0.000  0.287  0.380  0.333  0.000  0.000  0.000
  0.949  0.051  0.000  0.000  0.000  0.000  0.000  0.000  0.000  0.000
  0.000  0.000  0.000  0.000  0.094  0.573  0.333  0.000  0.000  0.000
 occupations, | n_(i1, i2)^(sigma1, sigma2) |:
  0.997  0.000  0.000  0.000  0.000  0.000  0.000  0.000  0.000  0.000
  0.000  0.999  0.000  0.000  0.000  0.000  0.000  0.000  0.000  0.000
  0.000  0.000  0.999  0.000  0.000  0.000  0.000  0.000  0.000  0.000
  0.000  0.000  0.000  0.997  0.000  0.000  0.000  0.000  0.000  0.000
  0.000  0.000  0.000  0.000  0.999  0.000  0.000  0.000  0.000  0.000
  0.000  0.000  0.000  0.000  0.000  0.227  0.000  0.000  0.000  0.000
  0.000  0.000  0.000  0.000  0.000  0.000  0.997  0.000  0.000  0.000
  0.000  0.000  0.000  0.000  0.000  0.000  0.000  0.997  0.000  0.000
  0.000  0.000  0.000  0.000  0.000  0.000  0.000  0.000  0.227  0.000
  0.000  0.000  0.000  0.000  0.000  0.000  0.000  0.000  0.000  0.997
atomic mx, my, mz =     0.0000000000050782   -0.0000000000003000    1.5457293623062152
atom   13   Tr[ns(na)] (up, down, total) =   4.99148  3.44575  8.43722
 eigenvalues: 
  0.227  0.227  0.997  0.997  0.997  0.997  0.997  0.999  0.999  0.999
 eigenvectors:
  0.000  0.000  0.969  0.031  0.000  0.000  0.000  0.000  0.000  0.000
  0.000  0.000  0.000  0.000  0.000  0.000  0.000  0.043  0.623  0.333
  0.000  0.000  0.000  0.000  0.000  0.000  0.000  0.358  0.309  0.333
  0.000  0.000  0.031  0.969  0.000  0.000  0.000  0.000  0.000  0.000
  0.000  0.000  0.000  0.000  0.000  0.000  0.000  0.599  0.068  0.333
  0.598  0.402  0.000  0.000  0.000  0.000  0.000  0.000  0.000  0.000
  0.000  0.000  0.000  0.000  0.194  0.473  0.333  0.000  0.000  0.000
  0.000  0.000  0.000  0.000  0.659  0.007  0.333  0.000  0.000  0.000
  0.402  0.598  0.000  0.000  0.000  0.000  0.000  0.000  0.000  0.000
  0.000  0.000  0.000  0.000  0.147  0.520  0.333  0.000  0.000  0.000
 occupations, | n_(i1, i2)^(sigma1, sigma2) |:
  0.997  0.000  0.000  0.000  0.000  0.000  0.000  0.000  0.000  0.000
  0.000  0.999  0.000  0.000  0.000  0.000  0.000  0.000  0.000  0.000
  0.000  0.000  0.999  0.000  0.000  0.000  0.000  0.000  0.000  0.000
  0.000  0.000  0.000  0.997  0.000  0.000  0.000  0.000  0.000  0.000
  0.000  0.000  0.000  0.000  0.999  0.000  0.000  0.000  0.000  0.000
  0.000  0.000  0.000  0.000  0.000  0.227  0.000  0.000  0.000  0.000
  0.000  0.000  0.000  0.000  0.000  0.000  0.997  0.000  0.000  0.000
  0.000  0.000  0.000  0.000  0.000  0.000  0.000  0.997  0.000  0.000
  0.000  0.000  0.000  0.000  0.000  0.000  0.000  0.000  0.227  0.000
  0.000  0.000  0.000  0.000  0.000  0.000  0.000  0.000  0.000  0.997
atomic mx, my, mz =    -0.0000000000019229    0.0000000000026524    1.5457293640692191
atom   14   Tr[ns(na)] (up, down, total) =   4.99148  3.44575  8.43722
 eigenvalues: 
  0.227  0.227  0.997  0.997  0.997  0.997  0.997  0.999  0.999  0.999
 eigenvectors:
  0.000  0.000  0.707  0.293  0.000  0.000  0.000  0.000  0.000  0.000
  0.000  0.000  0.000  0.000  0.000  0.000  0.000  0.608  0.058  0.333
  0.000  0.000  0.000  0.000  0.000  0.000  0.000  0.050  0.617  0.333
  0.000  0.000  0.293  0.707  0.000  0.000  0.000  0.000  0.000  0.000
  0.000  0.000  0.000  0.000  0.000  0.000  0.000  0.342  0.325  0.333
  0.728  0.272  0.000  0.000  0.000  0.000  0.000  0.000  0.000  0.000
  0.000  0.000  0.000  0.000  0.616  0.051  0.333  0.000  0.000  0.000
  0.000  0.000  0.000  0.000  0.171  0.496  0.333  0.000  0.000  0.000
  0.272  0.728  0.000  0.000  0.000  0.000  0.000  0.000  0.000  0.000
  0.000  0.000  0.000  0.000  0.213  0.453  0.333  0.000  0.000  0.000
 occupations, | n_(i1, i2)^(sigma1, sigma2) |:
  0.997  0.000  0.000  0.000  0.000  0.000  0.000  0.000  0.000  0.000
  0.000  0.999  0.000  0.000  0.000  0.000  0.000  0.000  0.000  0.000
  0.000  0.000  0.999  0.000  0.000  0.000  0.000  0.000  0.000  0.000
  0.000  0.000  0.000  0.997  0.000  0.000  0.000  0.000  0.000  0.000
  0.000  0.000  0.000  0.000  0.999  0.000  0.000  0.000  0.000  0.000
  0.000  0.000  0.000  0.000  0.000  0.227  0.000  0.000  0.000  0.000
  0.000  0.000  0.000  0.000  0.000  0.000  0.997  0.000  0.000  0.000
  0.000  0.000  0.000  0.000  0.000  0.000  0.000  0.997  0.000  0.000
  0.000  0.000  0.000  0.000  0.000  0.000  0.000  0.000  0.227  0.000
  0.000  0.000  0.000  0.000  0.000  0.000  0.000  0.000  0.000  0.997
atomic mx, my, mz =    -0.0000000000013086   -0.0000000000014083    1.5457293629878452
atom   15   Tr[ns(na)] (up, down, total) =   4.99148  3.44575  8.43722
 eigenvalues: 
  0.227  0.227  0.997  0.997  0.997  0.997  0.997  0.999  0.999  0.999
 eigenvectors:
  0.000  0.000  0.005  0.995  0.000  0.000  0.000  0.000  0.000  0.000
  0.000  0.000  0.000  0.000  0.000  0.000  0.000  0.373  0.294  0.333
  0.000  0.000  0.000  0.000  0.000  0.000  0.000  0.029  0.637  0.333
  0.000  0.000  0.995  0.005  0.000  0.000  0.000  0.000  0.000  0.000
  0.000  0.000  0.000  0.000  0.000  0.000  0.000  0.598  0.069  0.333
  0.997  0.003  0.000  0.000  0.000  0.000  0.000  0.000  0.000  0.000
  0.000  0.000  0.000  0.000  0.149  0.518  0.333  0.000  0.000  0.000
  0.000  0.000  0.000  0.000  0.188  0.478  0.333  0.000  0.000  0.000
  0.003  0.997  0.000  0.000  0.000  0.000  0.000  0.000  0.000  0.000
  0.000  0.000  0.000  0.000  0.663  0.004  0.333  0.000  0.000  0.000
 occupations, | n_(i1, i2)^(sigma1, sigma2) |:
  0.997  0.000  0.000  0.000  0.000  0.000  0.000  0.000  0.000  0.000
  0.000  0.999  0.000  0.000  0.000  0.000  0.000  0.000  0.000  0.000
  0.000  0.000  0.999  0.000  0.000  0.000  0.000  0.000  0.000  0.000
  0.000  0.000  0.000  0.997  0.000  0.000  0.000  0.000  0.000  0.000
  0.000  0.000  0.000  0.000  0.999  0.000  0.000  0.000  0.000  0.000
  0.000  0.000  0.000  0.000  0.000  0.227  0.000  0.000  0.000  0.000
  0.000  0.000  0.000  0.000  0.000  0.000  0.997  0.000  0.000  0.000
  0.000  0.000  0.000  0.000  0.000  0.000  0.000  0.997  0.000  0.000
  0.000  0.000  0.000  0.000  0.000  0.000  0.000  0.000  0.227  0.000
  0.000  0.000  0.000  0.000  0.000  0.000  0.000  0.000  0.000  0.997
atomic mx, my, mz =    -0.0000000000002074   -0.0000000000001530    1.5457293595705899
atom   16   Tr[ns(na)] (up, down, total) =   4.99148  3.44575  8.43722
 eigenvalues: 
  0.227  0.227  0.997  0.997  0.997  0.997  0.997  0.999  0.999  0.999
 eigenvectors:
  0.000  0.000  0.788  0.212  0.000  0.000  0.000  0.000  0.000  0.000
  0.000  0.000  0.000  0.000  0.000  0.000  0.000  0.180  0.487  0.333
  0.000  0.000  0.000  0.000  0.000  0.000  0.000  0.620  0.047  0.333
  0.000  0.000  0.212  0.788  0.000  0.000  0.000  0.000  0.000  0.000
  0.000  0.000  0.000  0.000  0.000  0.000  0.000  0.201  0.466  0.333
  0.003  0.997  0.000  0.000  0.000  0.000  0.000  0.000  0.000  0.000
  0.000  0.000  0.000  0.000  0.238  0.428  0.333  0.000  0.000  0.000
  0.000  0.000  0.000  0.000  0.615  0.051  0.333  0.000  0.000  0.000
  0.997  0.003  0.000  0.000  0.000  0.000  0.000  0.000  0.000  0.000
  0.000  0.000  0.000  0.000  0.146  0.520  0.333  0.000  0.000  0.000
 occupations, | n_(i1, i2)^(sigma1, sigma2) |:
  0.997  0.000  0.000  0.000  0.000  0.000  0.000  0.000  0.000  0.000
  0.000  0.999  0.000  0.000  0.000  0.000  0.000  0.000  0.000  0.000
  0.000  0.000  0.999  0.000  0.000  0.000  0.000  0.000  0.000  0.000
  0.000  0.000  0.000  0.997  0.000  0.000  0.000  0.000  0.000  0.000
  0.000  0.000  0.000  0.000  0.999  0.000  0.000  0.000  0.000  0.000
  0.000  0.000  0.000  0.000  0.000  0.227  0.000  0.000  0.000  0.000
  0.000  0.000  0.000  0.000  0.000  0.000  0.997  0.000  0.000  0.000
  0.000  0.000  0.000  0.000  0.000  0.000  0.000  0.997  0.000  0.000
  0.000  0.000  0.000  0.000  0.000  0.000  0.000  0.000  0.227  0.000
  0.000  0.000  0.000  0.000  0.000  0.000  0.000  0.000  0.000  0.997
atomic mx, my, mz =     0.0000000000047889   -0.0000000000039284    1.5457293615845851
atom   17   Tr[ns(na)] (up, down, total) =   4.99148  3.44575  8.43722
 eigenvalues: 
  0.227  0.227  0.997  0.997  0.997  0.997  0.997  0.999  0.999  0.999
 eigenvectors:
  0.000  0.000  0.239  0.761  0.000  0.000  0.000  0.000  0.000  0.000
  0.000  0.000  0.000  0.000  0.000  0.000  0.000  0.632  0.034  0.333
  0.000  0.000  0.000  0.000  0.000  0.000  0.000  0.307  0.360  0.333
  0.000  0.000  0.761  0.239  0.000  0.000  0.000  0.000  0.000  0.000
  0.000  0.000  0.000  0.000  0.000  0.000  0.000  0.061  0.606  0.333
  0.120  0.880  0.000  0.000  0.000  0.000  0.000  0.000  0.000  0.000
  0.000  0.000  0.000  0.000  0.495  0.171  0.333  0.000  0.000  0.000
  0.000  0.000  0.000  0.000  0.435  0.231  0.333  0.000  0.000  0.000
  0.880  0.120  0.000  0.000  0.000  0.000  0.000  0.000  0.000  0.000
  0.000  0.000  0.000  0.000  0.069  0.597  0.333  0.000  0.000  0.000
 occupations, | n_(i1, i2)^(sigma1, sigma2) |:
  0.997  0.000  0.000  0.000  0.000  0.000  0.000  0.000  0.000  0.000
  0.000  0.999  0.000  0.000  0.000  0.000  0.000  0.000  0.000  0.000
  0.000  0.000  0.999  0.000  0.000  0.000  0.000  0.000  0.000  0.000
  0.000  0.000  0.000  0.997  0.000  0.000  0.000  0.000  0.000  0.000
  0.000  0.000  0.000  0.000  0.999  0.000  0.000  0.000  0.000  0.000
  0.000  0.000  0.000  0.000  0.000  0.227  0.000  0.000  0.000  0.000
  0.000  0.000  0.000  0.000  0.000  0.000  0.997  0.000  0.000  0.000
  0.000  0.000  0.000  0.000  0.000  0.000  0.000  0.997  0.000  0.000
  0.000  0.000  0.000  0.000  0.000  0.000  0.000  0.000  0.227  0.000
  0.000  0.000  0.000  0.000  0.000  0.000  0.000  0.000  0.000  0.997
atomic mx, my, mz =     0.0000000000000416   -0.0000000000060650    1.5457293566102490
atom   18   Tr[ns(na)] (up, down, total) =   4.99148  3.44575  8.43722
 eigenvalues: 
  0.227  0.227  0.997  0.997  0.997  0.997  0.997  0.999  0.999  0.999
 eigenvectors:
  0.000  0.000  0.960  0.040  0.000  0.000  0.000  0.000  0.000  0.000
  0.000  0.000  0.000  0.000  0.000  0.000  0.000  0.558  0.108  0.333
  0.000  0.000  0.000  0.000  0.000  0.000  0.000  0.434  0.233  0.333
  0.000  0.000  0.040  0.960  0.000  0.000  0.000  0.000  0.000  0.000
  0.000  0.000  0.000  0.000  0.000  0.000  0.000  0.008  0.659  0.333
  0.015  0.985  0.000  0.000  0.000  0.000  0.000  0.000  0.000  0.000
  0.000  0.000  0.000  0.000  0.550  0.117  0.333  0.000  0.000  0.000
  0.000  0.000  0.000  0.000  0.445  0.222  0.333  0.000  0.000  0.000
  0.985  0.015  0.000  0.000  0.000  0.000  0.000  0.000  0.000  0.000
  0.000  0.000  0.000  0.000  0.006  0.661  0.333  0.000  0.000  0.000
 occupations, | n_(i1, i2)^(sigma1, sigma2) |:
  0.997  0.000  0.000  0.000  0.000  0.000  0.000  0.000  0.000  0.000
  0.000  0.999  0.000  0.000  0.000  0.000  0.000  0.000  0.000  0.000
  0.000  0.000  0.999  0.000  0.000  0.000  0.000  0.000  0.000  0.000
  0.000  0.000  0.000  0.997  0.000  0.000  0.000  0.000  0.000  0.000
  0.000  0.000  0.000  0.000  0.999  0.000  0.000  0.000  0.000  0.000
  0.000  0.000  0.000  0.000  0.000  0.227  0.000  0.000  0.000  0.000
  0.000  0.000  0.000  0.000  0.000  0.000  0.997  0.000  0.000  0.000
  0.000  0.000  0.000  0.000  0.000  0.000  0.000  0.997  0.000  0.000
  0.000  0.000  0.000  0.000  0.000  0.000  0.000  0.000  0.227  0.000
  0.000  0.000  0.000  0.000  0.000  0.000  0.000  0.000  0.000  0.997
atomic mx, my, mz =     0.0000000000033876   -0.0000000000007501    1.5457293681261679
atom   19   Tr[ns(na)] (up, down, total) =   4.99148  3.44575  8.43722
 eigenvalues: 
  0.227  0.227  0.997  0.997  0.997  0.997  0.997  0.999  0.999  0.999
 eigenvectors:
  0.000  0.000  0.626  0.374  0.000  0.000  0.000  0.000  0.000  0.000
  0.000  0.000  0.000  0.000  0.000  0.000  0.000  0.023  0.644  0.333
  0.000  0.000  0.000  0.000  0.000  0.000  0.000  0.485  0.181  0.333
  0.000  0.000  0.374  0.626  0.000  0.000  0.000  0.000  0.000  0.000
  0.000  0.000  0.000  0.000  0.000  0.000  0.000  0.492  0.174  0.333
  0.594  0.406  0.000  0.000  0.000  0.000  0.000  0.000  0.000  0.000
  0.000  0.000  0.000  0.000  0.251  0.416  0.333  0.000  0.000  0.000
  0.000  0.000  0.000  0.000  0.616  0.050  0.333  0.000  0.000  0.000
  0.406  0.594  0.000  0.000  0.000  0.000  0.000  0.000  0.000  0.000
  0.000  0.000  0.000  0.000  0.132  0.534  0.333  0.000  0.000  0.000
 occupations, | n_(i1, i2)^(sigma1, sigma2) |:
  0.997  0.000  0.000  0.000  0.000  0.000  0.000  0.000  0.000  0.000
  0.000  0.999  0.000  0.000  0.000  0.000  0.000  0.000  0.000  0.000
  0.000  0.000  0.999  0.000  0.000  0.000  0.000  0.000  0.000  0.000
  0.000  0.000  0.000  0.997  0.000  0.000  0.000  0.000  0.000  0.000
  0.000  0.000  0.000  0.000  0.999  0.000  0.000  0.000  0.000  0.000
  0.000  0.000  0.000  0.000  0.000  0.227  0.000  0.000  0.000  0.000
  0.000  0.000  0.000  0.000  0.000  0.000  0.997  0.000  0.000  0.000
  0.000  0.000  0.000  0.000  0.000  0.000  0.000  0.997  0.000  0.000
  0.000  0.000  0.000  0.000  0.000  0.000  0.000  0.000  0.227  0.000
  0.000  0.000  0.000  0.000  0.000  0.000  0.000  0.000  0.000  0.997
atomic mx, my, mz =     0.0000000000034744   -0.0000000000035391    1.5457293595051103
atom   20   Tr[ns(na)] (up, down, total) =   3.44575  4.99148  8.43722
 eigenvalues: 
  0.227  0.227  0.997  0.997  0.997  0.997  0.997  0.999  0.999  0.999
 eigenvectors:
  0.831  0.169  0.000  0.000  0.000  0.000  0.000  0.000  0.000  0.000
  0.000  0.000  0.000  0.000  0.194  0.472  0.333  0.000  0.000  0.000
  0.000  0.000  0.000  0.000  0.149  0.518  0.333  0.000  0.000  0.000
  0.169  0.831  0.000  0.000  0.000  0.000  0.000  0.000  0.000  0.000
  0.000  0.000  0.000  0.000  0.657  0.010  0.333  0.000  0.000  0.000
  0.000  0.000  0.111  0.889  0.000  0.000  0.000  0.000  0.000  0.000
  0.000  0.000  0.000  0.000  0.000  0.000  0.000  0.136  0.531  0.333
  0.000  0.000  0.000  0.000  0.000  0.000  0.000  0.200  0.467  0.333
  0.000  0.000  0.889  0.111  0.000  0.000  0.000  0.000  0.000  0.000
  0.000  0.000  0.000  0.000  0.000  0.000  0.000  0.664  0.002  0.333
 occupations, | n_(i1, i2)^(sigma1, sigma2) |:
  0.227  0.000  0.000  0.000  0.000  0.000  0.000  0.000  0.000  0.000
  0.000  0.997  0.000  0.000  0.000  0.000  0.000  0.000  0.000  0.000
  0.000  0.000  0.997  0.000  0.000  0.000  0.000  0.000  0.000  0.000
  0.000  0.000  0.000  0.227  0.000  0.000  0.000  0.000  0.000  0.000
  0.000  0.000  0.000  0.000  0.997  0.000  0.000  0.000  0.000  0.000
  0.000  0.000  0.000  0.000  0.000  0.997  0.000  0.000  0.000  0.000
  0.000  0.000  0.000  0.000  0.000  0.000  0.999  0.000  0.000  0.000
  0.000  0.000  0.000  0.000  0.000  0.000  0.000  0.999  0.000  0.000
  0.000  0.000  0.000  0.000  0.000  0.000  0.000  0.000  0.997  0.000
  0.000  0.000  0.000  0.000  0.000  0.000  0.000  0.000  0.000  0.999
atomic mx, my, mz =    -0.0000000000002607    0.0000000000027206   -1.5457293590961441
atom   21   Tr[ns(na)] (up, down, total) =   3.44575  4.99148  8.43722
 eigenvalues: 
  0.227  0.227  0.997  0.997  0.997  0.997  0.997  0.999  0.999  0.999
 eigenvectors:
  0.034  0.966  0.000  0.000  0.000  0.000  0.000  0.000  0.000  0.000
  0.000  0.000  0.000  0.000  0.259  0.408  0.333  0.000  0.000  0.000
  0.000  0.000  0.000  0.000  0.632  0.034  0.333  0.000  0.000  0.000
  0.966  0.034  0.000  0.000  0.000  0.000  0.000  0.000  0.000  0.000
  0.000  0.000  0.000  0.000  0.109  0.558  0.333  0.000  0.000  0.000
  0.000  0.000  0.984  0.016  0.000  0.000  0.000  0.000  0.000  0.000
  0.000  0.000  0.000  0.000  0.000  0.000  0.000  0.275  0.392  0.333
  0.000  0.000  0.000  0.000  0.000  0.000  0.000  0.647  0.020  0.333
  0.000  0.000  0.016  0.984  0.000  0.000  0.000  0.000  0.000  0.000
  0.000  0.000  0.000  0.000  0.000  0.000  0.000  0.078  0.588  0.333
 occupations, | n_(i1, i2)^(sigma1, sigma2) |:
  0.227  0.000  0.000  0.000  0.000  0.000  0.000  0.000  0.000  0.000
  0.000  0.997  0.000  0.000  0.000  0.000  0.000  0.000  0.000  0.000
  0.000  0.000  0.997  0.000  0.000  0.000  0.000  0.000  0.000  0.000
  0.000  0.000  0.000  0.227  0.000  0.000  0.000  0.000  0.000  0.000
  0.000  0.000  0.000  0.000  0.997  0.000  0.000  0.000  0.000  0.000
  0.000  0.000  0.000  0.000  0.000  0.997  0.000  0.000  0.000  0.000
  0.000  0.000  0.000  0.000  0.000  0.000  0.999  0.000  0.000  0.000
  0.000  0.000  0.000  0.000  0.000  0.000  0.000  0.999  0.000  0.000
  0.000  0.000  0.000  0.000  0.000  0.000  0.000  0.000  0.997  0.000
  0.000  0.000  0.000  0.000  0.000  0.000  0.000  0.000  0.000  0.999
atomic mx, my, mz =    -0.0000000000020095   -0.0000000000020885   -1.5457293580286611
atom   22   Tr[ns(na)] (up, down, total) =   3.44575  4.99148  8.43722
 eigenvalues: 
  0.227  0.227  0.997  0.997  0.997  0.997  0.997  0.999  0.999  0.999
 eigenvectors:
  0.139  0.861  0.000  0.000  0.000  0.000  0.000  0.000  0.000  0.000
  0.000  0.000  0.000  0.000  0.487  0.180  0.333  0.000  0.000  0.000
  0.000  0.000  0.000  0.000  0.471  0.196  0.333  0.000  0.000  0.000
  0.861  0.139  0.000  0.000  0.000  0.000  0.000  0.000  0.000  0.000
  0.000  0.000  0.000  0.000  0.043  0.624  0.333  0.000  0.000  0.000
  0.000  0.000  0.853  0.147  0.000  0.000  0.000  0.000  0.000  0.000
  0.000  0.000  0.000  0.000  0.000  0.000  0.000  0.653  0.014  0.333
  0.000  0.000  0.000  0.000  0.000  0.000  0.000  0.244  0.423  0.333
  0.000  0.000  0.147  0.853  0.000  0.000  0.000  0.000  0.000  0.000
  0.000  0.000  0.000  0.000  0.000  0.000  0.000  0.103  0.564  0.333
 occupations, | n_(i1, i2)^(sigma1, sigma2) |:
  0.227  0.000  0.000  0.000  0.000  0.000  0.000  0.000  0.000  0.000
  0.000  0.997  0.000  0.000  0.000  0.000  0.000  0.000  0.000  0.000
  0.000  0.000  0.997  0.000  0.000  0.000  0.000  0.000  0.000  0.000
  0.000  0.000  0.000  0.227  0.000  0.000  0.000  0.000  0.000  0.000
  0.000  0.000  0.000  0.000  0.997  0.000  0.000  0.000  0.000  0.000
  0.000  0.000  0.000  0.000  0.000  0.997  0.000  0.000  0.000  0.000
  0.000  0.000  0.000  0.000  0.000  0.000  0.999  0.000  0.000  0.000
  0.000  0.000  0.000  0.000  0.000  0.000  0.000  0.999  0.000  0.000
  0.000  0.000  0.000  0.000  0.000  0.000  0.000  0.000  0.997  0.000
  0.000  0.000  0.000  0.000  0.000  0.000  0.000  0.000  0.000  0.999
atomic mx, my, mz =     0.0000000000005302   -0.0000000000007183   -1.5457293617582919
atom   23   Tr[ns(na)] (up, down, total) =   3.44575  4.99148  8.43722
 eigenvalues: 
  0.227  0.227  0.997  0.997  0.997  0.997  0.997  0.999  0.999  0.999
 eigenvectors:
  0.573  0.427  0.000  0.000  0.000  0.000  0.000  0.000  0.000  0.000
  0.000  0.000  0.000  0.000  0.173  0.493  0.333  0.000  0.000  0.000
  0.000  0.000  0.000  0.000  0.661  0.005  0.333  0.000  0.000  0.000
  0.427  0.573  0.000  0.000  0.000  0.000  0.000  0.000  0.000  0.000
  0.000  0.000  0.000  0.000  0.166  0.501  0.333  0.000  0.000  0.000
  0.000  0.000  0.922  0.078  0.000  0.000  0.000  0.000  0.000  0.000
  0.000  0.000  0.000  0.000  0.000  0.000  0.000  0.336  0.331  0.333
  0.000  0.000  0.000  0.000  0.000  0.000  0.000  0.588  0.079  0.333
  0.000  0.000  0.078  0.922  0.000  0.000  0.000  0.000  0.000  0.000
  0.000  0.000  0.000  0.000  0.000  0.000  0.000  0.076  0.590  0.333
 occupations, | n_(i1, i2)^(sigma1, sigma2) |:
  0.227  0.000  0.000  0.000  0.000  0.000  0.000  0.000  0.000  0.000
  0.000  0.997  0.000  0.000  0.000  0.000  0.000  0.000  0.000  0.000
  0.000  0.000  0.997  0.000  0.000  0.000  0.000  0.000  0.000  0.000
  0.000  0.000  0.000  0.227  0.000  0.000  0.000  0.000  0.000  0.000
  0.000  0.000  0.000  0.000  0.997  0.000  0.000  0.000  0.000  0.000
  0.000  0.000  0.000  0.000  0.000  0.997  0.000  0.000  0.000  0.000
  0.000  0.000  0.000  0.000  0.000  0.000  0.999  0.000  0.000  0.000
  0.000  0.000  0.000  0.000  0.000  0.000  0.000  0.999  0.000  0.000
  0.000  0.000  0.000  0.000  0.000  0.000  0.000  0.000  0.997  0.000
  0.000  0.000  0.000  0.000  0.000  0.000  0.000  0.000  0.000  0.999
atomic mx, my, mz =    -0.0000000000006079   -0.0000000000015283   -1.5457293606308371
atom   24   Tr[ns(na)] (up, down, total) =   3.44575  4.99148  8.43722
 eigenvalues: 
  0.227  0.227  0.997  0.997  0.997  0.997  0.997  0.999  0.999  0.999
 eigenvectors:
  0.001  0.999  0.000  0.000  0.000  0.000  0.000  0.000  0.000  0.000
  0.000  0.000  0.000  0.000  0.397  0.270  0.333  0.000  0.000  0.000
  0.000  0.000  0.000  0.000  0.583  0.084  0.333  0.000  0.000  0.000
  0.999  0.001  0.000  0.000  0.000  0.000  0.000  0.000  0.000  0.000
  0.000  0.000  0.000  0.000  0.021  0.646  0.333  0.000  0.000  0.000
  0.000  0.000  0.969  0.031  0.000  0.000  0.000  0.000  0.000  0.000
  0.000  0.000  0.000  0.000  0.000  0.000  0.000  0.522  0.144  0.333
  0.000  0.000  0.000  0.000  0.000  0.000  0.000  0.476  0.190  0.333
  0.000  0.000  0.031  0.969  0.000  0.000  0.000  0.000  0.000  0.000
  0.000  0.000  0.000  0.000  0.000  0.000  0.000  0.001  0.665  0.333
 occupations, | n_(i1, i2)^(sigma1, sigma2) |:
  0.227  0.000  0.000  0.000  0.000  0.000  0.000  0.000  0.000  0.000
  0.000  0.997  0.000  0.000  0.000  0.000  0.000  0.000  0.000  0.000
  0.000  0.000  0.997  0.000  0.000  0.000  0.000  0.000  0.000  0.000
  0.000  0.000  0.000  0.227  0.000  0.000  0.000  0.000  0.000  0.000
  0.000  0.000  0.000  0.000  0.997  0.000  0.000  0.000  0.000  0.000
  0.000  0.000  0.000  0.000  0.000  0.997  0.000  0.000  0.000  0.000
  0.000  0.000  0.000  0.000  0.000  0.000  0.999  0.000  0.000  0.000
  0.000  0.000  0.000  0.000  0.000  0.000  0.000  0.999  0.000  0.000
  0.000  0.000  0.000  0.000  0.000  0.000  0.000  0.000  0.997  0.000
  0.000  0.000  0.000  0.000  0.000  0.000  0.000  0.000  0.000  0.999
atomic mx, my, mz =     0.0000000000025769   -0.0000000000018126   -1.5457293612640131
atom   25   Tr[ns(na)] (up, down, total) =   3.44575  4.99148  8.43722
 eigenvalues: 
  0.227  0.227  0.997  0.997  0.997  0.997  0.997  0.999  0.999  0.999
 eigenvectors:
  0.238  0.762  0.000  0.000  0.000  0.000  0.000  0.000  0.000  0.000
  0.000  0.000  0.000  0.000  0.648  0.019  0.333  0.000  0.000  0.000
  0.000  0.000  0.000  0.000  0.082  0.585  0.333  0.000  0.000  0.000
  0.762  0.238  0.000  0.000  0.000  0.000  0.000  0.000  0.000  0.000
  0.000  0.000  0.000  0.000  0.270  0.397  0.333  0.000  0.000  0.000
  0.000  0.000  0.839  0.161  0.000  0.000  0.000  0.000  0.000  0.000
  0.000  0.000  0.000  0.000  0.000  0.000  0.000  0.666  0.000  0.333
  0.000  0.000  0.000  0.000  0.000  0.000  0.000  0.164  0.503  0.333
  0.000  0.000  0.161  0.839  0.000  0.000  0.000  0.000  0.000  0.000
  0.000  0.000  0.000  0.000  0.000  0.000  0.000  0.169  0.497  0.333
 occupations, | n_(i1, i2)^(sigma1, sigma2) |:
  0.227  0.000  0.000  0.000  0.000  0.000  0.000  0.000  0.000  0.000
  0.000  0.997  0.000  0.000  0.000  0.000  0.000  0.000  0.000  0.000
  0.000  0.000  0.997  0.000  0.000  0.000  0.000  0.000  0.000  0.000
  0.000  0.000  0.000  0.227  0.000  0.000  0.000  0.000  0.000  0.000
  0.000  0.000  0.000  0.000  0.997  0.000  0.000  0.000  0.000  0.000
  0.000  0.000  0.000  0.000  0.000  0.997  0.000  0.000  0.000  0.000
  0.000  0.000  0.000  0.000  0.000  0.000  0.999  0.000  0.000  0.000
  0.000  0.000  0.000  0.000  0.000  0.000  0.000  0.999  0.000  0.000
  0.000  0.000  0.000  0.000  0.000  0.000  0.000  0.000  0.997  0.000
  0.000  0.000  0.000  0.000  0.000  0.000  0.000  0.000  0.000  0.999
atomic mx, my, mz =     0.0000000000008114   -0.0000000000032925   -1.5457293555489251
atom   26   Tr[ns(na)] (up, down, total) =   3.44575  4.99148  8.43722
 eigenvalues: 
  0.227  0.227  0.997  0.997  0.997  0.997  0.997  0.999  0.999  0.999
 eigenvectors:
  0.572  0.428  0.000  0.000  0.000  0.000  0.000  0.000  0.000  0.000
  0.000  0.000  0.000  0.000  0.396  0.271  0.333  0.000  0.000  0.000
  0.000  0.000  0.000  0.000  0.021  0.646  0.333  0.000  0.000  0.000
  0.428  0.572  0.000  0.000  0.000  0.000  0.000  0.000  0.000  0.000
  0.000  0.000  0.000  0.000  0.583  0.083  0.333  0.000  0.000  0.000
  0.000  0.000  0.479  0.521  0.000  0.000  0.000  0.000  0.000  0.000
  0.000  0.000  0.000  0.000  0.000  0.000  0.000  0.475  0.192  0.333
  0.000  0.000  0.000  0.000  0.000  0.000  0.000  0.007  0.660  0.333
  0.000  0.000  0.521  0.479  0.000  0.000  0.000  0.000  0.000  0.000
  0.000  0.000  0.000  0.000  0.000  0.000  0.000  0.518  0.149  0.333
 occupations, | n_(i1, i2)^(sigma1, sigma2) |:
  0.227  0.000  0.000  0.000  0.000  0.000  0.000  0.000  0.000  0.000
  0.000  0.997  0.000  0.000  0.000  0.000  0.000  0.000  0.000  0.000
  0.000  0.000  0.997  0.000  0.000  0.000  0.000  0.000  0.000  0.000
  0.000  0.000  0.000  0.227  0.000  0.000  0.000  0.000  0.000  0.000
  0.000  0.000  0.000  0.000  0.997  0.000  0.000  0.000  0.000  0.000
  0.000  0.000  0.000  0.000  0.000  0.997  0.000  0.000  0.000  0.000
  0.000  0.000  0.000  0.000  0.000  0.000  0.999  0.000  0.000  0.000
  0.000  0.000  0.000  0.000  0.000  0.000  0.000  0.999  0.000  0.000
  0.000  0.000  0.000  0.000  0.000  0.000  0.000  0.000  0.997  0.000
  0.000  0.000  0.000  0.000  0.000  0.000  0.000  0.000  0.000  0.999
atomic mx, my, mz =    -0.0000000000006909   -0.0000000000004998   -1.5457293574350222
atom   27   Tr[ns(na)] (up, down, total) =   3.44575  4.99148  8.43722
 eigenvalues: 
  0.227  0.227  0.997  0.997  0.997  0.997  0.997  0.999  0.999  0.999
 eigenvectors:
  0.493  0.507  0.000  0.000  0.000  0.000  0.000  0.000  0.000  0.000
  0.000  0.000  0.000  0.000  0.258  0.408  0.333  0.000  0.000  0.000
  0.000  0.000  0.000  0.000  0.376  0.291  0.333  0.000  0.000  0.000
  0.507  0.493  0.000  0.000  0.000  0.000  0.000  0.000  0.000  0.000
  0.000  0.000  0.000  0.000  0.366  0.301  0.333  0.000  0.000  0.000
  0.000  0.000  0.853  0.147  0.000  0.000  0.000  0.000  0.000  0.000
  0.000  0.000  0.000  0.000  0.000  0.000  0.000  0.588  0.078  0.333
  0.000  0.000  0.000  0.000  0.000  0.000  0.000  0.369  0.298  0.333
  0.000  0.000  0.147  0.853  0.000  0.000  0.000  0.000  0.000  0.000
  0.000  0.000  0.000  0.000  0.000  0.000  0.000  0.043  0.624  0.333
 occupations, | n_(i1, i2)^(sigma1, sigma2) |:
  0.227  0.000  0.000  0.000  0.000  0.000  0.000  0.000  0.000  0.000
  0.000  0.997  0.000  0.000  0.000  0.000  0.000  0.000  0.000  0.000
  0.000  0.000  0.997  0.000  0.000  0.000  0.000  0.000  0.000  0.000
  0.000  0.000  0.000  0.227  0.000  0.000  0.000  0.000  0.000  0.000
  0.000  0.000  0.000  0.000  0.997  0.000  0.000  0.000  0.000  0.000
  0.000  0.000  0.000  0.000  0.000  0.997  0.000  0.000  0.000  0.000
  0.000  0.000  0.000  0.000  0.000  0.000  0.999  0.000  0.000  0.000
  0.000  0.000  0.000  0.000  0.000  0.000  0.000  0.999  0.000  0.000
  0.000  0.000  0.000  0.000  0.000  0.000  0.000  0.000  0.997  0.000
  0.000  0.000  0.000  0.000  0.000  0.000  0.000  0.000  0.000  0.999
atomic mx, my, mz =     0.0000000000004592   -0.0000000000010138   -1.5457293541370238
atom   28   Tr[ns(na)] (up, down, total) =   3.44575  4.99148  8.43722
 eigenvalues: 
  0.227  0.227  0.997  0.997  0.997  0.997  0.997  0.999  0.999  0.999
 eigenvectors:
  0.953  0.047  0.000  0.000  0.000  0.000  0.000  0.000  0.000  0.000
  0.000  0.000  0.000  0.000  0.622  0.045  0.333  0.000  0.000  0.000
  0.000  0.000  0.000  0.000  0.085  0.581  0.333  0.000  0.000  0.000
  0.047  0.953  0.000  0.000  0.000  0.000  0.000  0.000  0.000  0.000
  0.000  0.000  0.000  0.000  0.293  0.374  0.333  0.000  0.000  0.000
  0.000  0.000  0.123  0.877  0.000  0.000  0.000  0.000  0.000  0.000
  0.000  0.000  0.000  0.000  0.000  0.000  0.000  0.378  0.289  0.333
  0.000  0.000  0.000  0.000  0.000  0.000  0.000  0.026  0.641  0.333
  0.000  0.000  0.877  0.123  0.000  0.000  0.000  0.000  0.000  0.000
  0.000  0.000  0.000  0.000  0.000  0.000  0.000  0.597  0.070  0.333
 occupations, | n_(i1, i2)^(sigma1, sigma2) |:
  0.227  0.000  0.000  0.000  0.000  0.000  0.000  0.000  0.000  0.000
  0.000  0.997  0.000  0.000  0.000  0.000  0.000  0.000  0.000  0.000
  0.000  0.000  0.997  0.000  0.000  0.000  0.000  0.000  0.000  0.000
  0.000  0.000  0.000  0.227  0.000  0.000  0.000  0.000  0.000  0.000
  0.000  0.000  0.000  0.000  0.997  0.000  0.000  0.000  0.000  0.000
  0.000  0.000  0.000  0.000  0.000  0.997  0.000  0.000  0.000  0.000
  0.000  0.000  0.000  0.000  0.000  0.000  0.999  0.000  0.000  0.000
  0.000  0.000  0.000  0.000  0.000  0.000  0.000  0.999  0.000  0.000
  0.000  0.000  0.000  0.000  0.000  0.000  0.000  0.000  0.997  0.000
  0.000  0.000  0.000  0.000  0.000  0.000  0.000  0.000  0.000  0.999
atomic mx, my, mz =     0.0000000000013447   -0.0000000000006339   -1.5457293618060881
atom   29   Tr[ns(na)] (up, down, total) =   3.44575  4.99148  8.43722
 eigenvalues: 
  0.227  0.227  0.997  0.997  0.997  0.997  0.997  0.999  0.999  0.999
 eigenvectors:
  0.351  0.649  0.000  0.000  0.000  0.000  0.000  0.000  0.000  0.000
  0.000  0.000  0.000  0.000  0.343  0.324  0.333  0.000  0.000  0.000
  0.000  0.000  0.000  0.000  0.564  0.103  0.333  0.000  0.000  0.000
  0.649  0.351  0.000  0.000  0.000  0.000  0.000  0.000  0.000  0.000
  0.000  0.000  0.000  0.000  0.093  0.574  0.333  0.000  0.000  0.000
  0.000  0.000  0.903  0.097  0.000  0.000  0.000  0.000  0.000  0.000
  0.000  0.000  0.000  0.000  0.000  0.000  0.000  0.517  0.150  0.333
  0.000  0.000  0.000  0.000  0.000  0.000  0.000  0.049  0.618  0.333
  0.000  0.000  0.097  0.903  0.000  0.000  0.000  0.000  0.000  0.000
  0.000  0.000  0.000  0.000  0.000  0.000  0.000  0.435  0.232  0.333
 occupations, | n_(i1, i2)^(sigma1, sigma2) |:
  0.227  0.000  0.000  0.000  0.000  0.000  0.000  0.000  0.000  0.000
  0.000  0.997  0.000  0.000  0.000  0.000  0.000  0.000  0.000  0.000
  0.000  0.000  0.997  0.000  0.000  0.000  0.000  0.000  0.000  0.000
  0.000  0.000  0.000  0.227  0.000  0.000  0.000  0.000  0.000  0.000
  0.000  0.000  0.000  0.000  0.997  0.000  0.000  0.000  0.000  0.000
  0.000  0.000  0.000  0.000  0.000  0.997  0.000  0.000  0.000  0.000
  0.000  0.000  0.000  0.000  0.000  0.000  0.999  0.000  0.000  0.000
  0.000  0.000  0.000  0.000  0.000  0.000  0.000  0.999  0.000  0.000
  0.000  0.000  0.000  0.000  0.000  0.000  0.000  0.000  0.997  0.000
  0.000  0.000  0.000  0.000  0.000  0.000  0.000  0.000  0.000  0.999
atomic mx, my, mz =     0.0000000000048566    0.0000000000004558   -1.5457293622203707
atom   30   Tr[ns(na)] (up, down, total) =   4.99148  3.44575  8.43722
 eigenvalues: 
  0.227  0.227  0.997  0.997  0.997  0.997  0.997  0.999  0.999  0.999
 eigenvectors:
  0.000  0.000  0.351  0.649  0.000  0.000  0.000  0.000  0.000  0.000
  0.000  0.000  0.000  0.000  0.000  0.000  0.000  0.633  0.033  0.333
  0.000  0.000  0.000  0.000  0.000  0.000  0.000  0.064  0.602  0.333
  0.000  0.000  0.649  0.351  0.000  0.000  0.000  0.000  0.000  0.000
  0.000  0.000  0.000  0.000  0.000  0.000  0.000  0.302  0.364  0.333
  0.384  0.616  0.000  0.000  0.000  0.000  0.000  0.000  0.000  0.000
  0.000  0.000  0.000  0.000  0.433  0.233  0.333  0.000  0.000  0.000
  0.000  0.000  0.000  0.000  0.008  0.658  0.333  0.000  0.000  0.000
  0.616  0.384  0.000  0.000  0.000  0.000  0.000  0.000  0.000  0.000
  0.000  0.000  0.000  0.000  0.558  0.108  0.333  0.000  0.000  0.000
 occupations, | n_(i1, i2)^(sigma1, sigma2) |:
  0.997  0.000  0.000  0.000  0.000  0.000  0.000  0.000  0.000  0.000
  0.000  0.999  0.000  0.000  0.000  0.000  0.000  0.000  0.000  0.000
  0.000  0.000  0.999  0.000  0.000  0.000  0.000  0.000  0.000  0.000
  0.000  0.000  0.000  0.997  0.000  0.000  0.000  0.000  0.000  0.000
  0.000  0.000  0.000  0.000  0.999  0.000  0.000  0.000  0.000  0.000
  0.000  0.000  0.000  0.000  0.000  0.227  0.000  0.000  0.000  0.000
  0.000  0.000  0.000  0.000  0.000  0.000  0.997  0.000  0.000  0.000
  0.000  0.000  0.000  0.000  0.000  0.000  0.000  0.997  0.000  0.000
  0.000  0.000  0.000  0.000  0.000  0.000  0.000  0.000  0.227  0.000
  0.000  0.000  0.000  0.000  0.000  0.000  0.000  0.000  0.000  0.997
atomic mx, my, mz =     0.0000000000024739   -0.0000000000021309    1.5457293600628030
atom   31   Tr[ns(na)] (up, down, total) =   4.99148  3.44575  8.43722
 eigenvalues: 
  0.227  0.227  0.997  0.997  0.997  0.997  0.997  0.999  0.999  0.999
 eigenvectors:
  0.000  0.000  0.714  0.286  0.000  0.000  0.000  0.000  0.000  0.000
  0.000  0.000  0.000  0.000  0.000  0.000  0.000  0.387  0.280  0.333
  0.000  0.000  0.000  0.000  0.000  0.000  0.000  0.545  0.122  0.333
[...]
     1.0000   1.0000   1.0000   1.0000   1.0000   1.0000   1.0000   1.0000
     1.0000   1.0000   1.0000   1.0000   1.0000   1.0000   1.0000   1.0000
     1.0000   1.0000   1.0000   1.0000   1.0000   1.0000   1.0000   1.0000
     1.0000   1.0000   1.0000   1.0000   1.0000   1.0000   1.0000   1.0000
     1.0000   1.0000   1.0000   1.0000   1.0000   1.0000   1.0000   1.0000
     1.0000   1.0000   1.0000   1.0000   1.0000   1.0000   1.0000   1.0000
     1.0000   1.0000   1.0000   1.0000   1.0000   1.0000   1.0000   1.0000
     1.0000   1.0000   1.0000   1.0000   1.0000   1.0000   1.0000   1.0000
     1.0000   1.0000   1.0000   1.0000   1.0000   1.0000   1.0000   1.0000
     1.0000   1.0000   1.0000   1.0000   1.0000   1.0000   1.0000   1.0000
     1.0000   1.0000   1.0000   1.0000   1.0000   1.0000   1.0000   1.0000
     1.0000   1.0000   1.0000   1.0000   1.0000   1.0000   1.0000   1.0000
     1.0000   1.0000   1.0000   1.0000   1.0000   1.0000   1.0000   1.0000
     1.0000   1.0000   1.0000   1.0000   1.0000   1.0000   1.0000   1.0000
     1.0000   1.0000   1.0000   1.0000   1.0000   1.0000   1.0000   1.0000
     1.0000   1.0000   1.0000   1.0000   1.0000   1.0000   1.0000   1.0000
     1.0000   1.0000   1.0000   1.0000   1.0000   1.0000   1.0000   1.0000
     1.0000   1.0000   1.0000   1.0000   1.0000   1.0000   1.0000   1.0000
     1.0000   1.0000   1.0000   1.0000   1.0000   1.0000   1.0000   1.0000
     1.0000   1.0000   1.0000   1.0000   1.0000   1.0000   1.0000   1.0000
     1.0000   1.0000   1.0000   1.0000   1.0000   1.0000   1.0000   1.0000
     1.0000   1.0000   1.0000   1.0000   1.0000   1.0000   1.0000   1.0000
     1.0000   1.0000   1.0000   1.0000   1.0000   1.0000   1.0000   1.0000
     1.0000   1.0000   1.0000   1.0000   1.0000   1.0000   1.0000   1.0000
     1.0000   1.0000   1.0000   1.0000   1.0000   1.0000   1.0000   1.0000
     1.0000   1.0000   1.0000   1.0000   1.0000   1.0000   1.0000   1.0000
     1.0000   1.0000   1.0000   1.0000   1.0000   1.0000   1.0000   1.0000
     1.0000   1.0000   1.0000   1.0000   1.0000   1.0000   1.0000   1.0000
     1.0000   1.0000   1.0000   1.0000   1.0000   1.0000   1.0000   1.0000
     1.0000   1.0000   1.0000   1.0000   1.0000   1.0000   1.0000   1.0000
     1.0000   1.0000   1.0000   1.0000   1.0000   1.0000   1.0000   1.0000
     1.0000   1.0000   1.0000   1.0000   1.0000   1.0000   1.0000   1.0000
     1.0000   1.0000   1.0000   1.0000   1.0000   1.0000   1.0000   1.0000
     1.0000   1.0000   1.0000   1.0000   1.0000   1.0000   1.0000   1.0000
     1.0000   1.0000   1.0000   1.0000   1.0000   1.0000   1.0000   1.0000
     1.0000   1.0000   1.0000   1.0000   1.0000   1.0000   1.0000   1.0000
     1.0000   1.0000   1.0000   1.0000   1.0000   1.0000   1.0000   1.0000
     1.0000   1.0000   1.0000   1.0000   1.0000   1.0000   1.0000   1.0000
     1.0000   1.0000   1.0000   1.0000   1.0000   1.0000   1.0000   1.0000
     1.0000   1.0000   1.0000   1.0000   1.0000   1.0000   1.0000   1.0000
     1.0000   1.0000   1.0000   1.0000   1.0000   1.0000   1.0000   1.0000
     1.0000   1.0000   1.0000   1.0000   1.0000   1.0000   1.0000   1.0000
     1.0000   1.0000   1.0000   1.0000   1.0000   1.0000   1.0000   1.0000
    -0.0000  -0.0000  -0.0000  -0.0000  -0.0000  -0.0000  -0.0000  -0.0000
    -0.0000  -0.0000  -0.0000  -0.0000  -0.0000  -0.0000  -0.0000  -0.0000
    -0.0000  -0.0000  -0.0000  -0.0000  -0.0000  -0.0000  -0.0000  -0.0000
    -0.0000  -0.0000  -0.0000  -0.0000  -0.0000  -0.0000  -0.0000  -0.0000
    -0.0000  -0.0000  -0.0000  -0.0000  -0.0000  -0.0000  -0.0000  -0.0000
    -0.0000  -0.0000  -0.0000  -0.0000  -0.0000  -0.0000  -0.0000  -0.0000
    -0.0000  -0.0000  -0.0000  -0.0000  -0.0000  -0.0000  -0.0000  -0.0000
    -0.0000  -0.0000  -0.0000  -0.0000  -0.0000  -0.0000  -0.0000  -0.0000
    -0.0000  -0.0000  -0.0000  -0.0000  -0.0000  -0.0000  -0.0000  -0.0000
    -0.0000  -0.0000  -0.0000  -0.0000  -0.0000  -0.0000  -0.0000  -0.0000
    -0.0000  -0.0000  -0.0000  -0.0000  -0.0000  -0.0000  -0.0000  -0.0000
    -0.0000  -0.0000  -0.0000  -0.0000  -0.0000  -0.0000  -0.0000  -0.0000
    -0.0000  -0.0000  -0.0000  -0.0000  -0.0000  -0.0000

          k =-0.2500-0.2500-0.2500 ( 17172 PWs)   bands (ev):

    -8.3384  -8.3379  -7.9551  -7.9551  -7.9550  -7.9550  -7.9550  -7.9542
    -7.6652  -7.6649  -7.6649  -7.6645  -7.6645  -7.6640  -7.4521  -7.4521
    -7.4520  -7.4519  -7.4501  -7.4501  -7.4242  -7.4242  -7.4236  -7.4235
    -7.4235  -7.4231  -7.3307  -7.3307  -7.3306  -7.3305  -7.3304  -7.3304
    -7.3303  -7.3298  -7.3295  -7.3295  -7.3275  -7.3275  -7.3139  -7.3134
    -7.0873  -7.0873  -7.0871  -7.0862  -7.0862  -7.0862  -7.0685  -7.0685
    -7.0676  -7.0675  -7.0675  -7.0675  -7.0673  -7.0670  -7.0670  -7.0670
    -7.0652  -7.0652  -6.9282  -6.9282  -6.9279  -6.9279  -6.9276  -6.9273
     1.5626   1.5626   1.5642   1.5652   1.5715   1.5715   1.7639   1.7703
     2.1205   2.1211   2.1211   2.1254   2.1254   2.1327   2.2401   2.2401
     2.2408   2.2411   2.2411   2.2412   2.2415   2.2458   2.2464   2.2464
     2.2539   2.2539   2.3665   2.3665   2.3667   2.3676   2.3792   2.3792
     2.7903   2.7903   2.7976   2.7976   2.8124   2.8124   2.8127   2.8130
     2.8130   2.8133   2.8133   2.8150   2.8150   2.8166   2.8331   2.8331
     2.8788   2.8788   2.8791   2.8859   2.8859   2.8889   2.9090   2.9091
     2.9093   2.9093   2.9195   2.9195   2.9590   2.9597   2.9597   2.9627
     2.9630   2.9630   2.9630   2.9631   2.9631   2.9654   2.9766   2.9766
     3.0026   3.0029   3.0029   3.0029   3.0113   3.0113   3.0200   3.0200
     3.0204   3.0209   3.0212   3.0216   3.0216   3.0241   3.0241   3.0303
     3.0414   3.0431   3.0431   3.0454   3.0454   3.0466   3.0723   3.0723
     3.1488   3.1488   3.1523   3.1525   3.1526   3.1530   3.1530   3.1535
     3.1535   3.1546   3.1670   3.1670   3.1695   3.1695   3.1703   3.1825
     3.1825   3.2047   3.3025   3.3025   3.3044   3.3064   3.3129   3.3129
     3.3625   3.3625   3.3632   3.3632   3.3828   3.3828   3.6589   3.6589
     3.6592   3.6592   3.6593   3.6596   3.6596   3.6653   3.6653   3.6787
     3.6787   3.6817   4.1256   4.1310   4.1310   4.1333   4.1391   4.1391
     4.1675   4.1675   4.1676   4.1679   4.1834   4.1834   4.2288   4.2290
     4.2290   4.2291   4.2491   4.2491   4.2558   4.2558   4.2574   4.2611
     4.2720   4.2720   4.2967   4.2987   4.2987   4.3014   4.3014   4.3042
     4.3868   4.3875   4.3875   4.3901   4.3901   4.4007   4.4523   4.4523
     4.4560   4.4560   4.4560   4.4561   4.4561   4.4561   4.4564   4.4643
     4.4737   4.4737   4.6544   4.6545   4.6545   4.6605   4.6605   4.6630
     4.7686   4.7688   4.7690   4.7690   4.7935   4.7935   4.8918   4.8934
     4.8934   4.8968   4.8968   4.9024   4.9054   4.9064   4.9064   4.9141
     4.9141   4.9161   5.2833   5.2833   5.2853   5.2870   5.2871   5.2872
     5.2872   5.2876   5.2876   5.2902   5.2902   5.3217   5.3392   5.3392
     5.3431   5.3431   5.4481   5.4559   5.4559   5.4562   5.4564   5.4564
     5.4566   5.4567   5.4567   5.4569   5.4737   5.4737   5.5651   5.5651
     5.5690   5.5690   5.5697   5.5697   5.7121   5.7121   5.7157   5.7157
     5.7180   5.7180   5.8667   5.8667   5.8700   5.8702   5.8711   5.8711
     6.2153   6.2181   6.2181   6.2212   6.2230   6.2230   6.4650   6.4650
     6.4666   6.4683   6.4683   6.4731   6.7856   6.7856   6.7862   6.7874
     6.7877   6.7877   6.7914   6.7914   6.7920   6.7920   6.7922   6.7923
     6.7924   6.7925   6.7925   6.7931   6.8029   6.8029   7.0640   7.0640
     7.0660   7.0661   7.0662   7.0662   7.0662   7.0662   7.0663   7.0668
     7.0668   7.0715   7.1024   7.1024   7.1025   7.1038   7.1046   7.1046
     7.2138   7.2138   7.2146   7.2148   7.2148   7.2148   7.2151   7.2152
     7.2154   7.2154   7.2184   7.2184   7.2268   7.2283   7.2376   7.2376
     7.2380   7.2382   7.2382   7.2447   7.2450   7.2450   7.2464   7.2472
     7.2494   7.2494   7.4700   7.4700   7.4707   7.4710   7.4710   7.4711
     7.4965   7.4965   7.4971   7.4976   7.4976   7.4976   7.7538   7.7538
     7.7550   7.7550   7.7550   7.7551   7.7556   7.7556   7.7557   7.7559
     7.7573   7.7573   7.8963   7.8966   7.9059   7.9059   7.9075   7.9078
     7.9088   7.9088   7.9339   7.9339   7.9361   7.9364   7.9376   7.9376
     7.9816   7.9816   7.9820   7.9820   7.9825   7.9825   8.1350   8.1350
     8.1354   8.1356   8.1356   8.1361   8.2077   8.2077   8.2091   8.2091
     8.6104   8.6104   8.6104   8.6108   8.6108   8.6108   8.6108   8.6108
     8.6110   8.6122   8.6174   8.6174   8.8665   8.8665   8.8671   8.8674
     8.8674   8.8679   8.8814   8.8814   8.8836   8.8839   8.8839   8.8839
     8.8840   8.8840   8.8841   8.8844   8.8874   8.8874   8.8906   8.8906
     8.8918   8.8926   8.8954   8.8954   8.8992   8.8992   8.8992   8.9003
     8.9069   8.9069   9.0438   9.0438   9.0450   9.0454   9.0488   9.0488
     9.1904   9.1907   9.1908   9.1908   9.1928   9.1928   9.2107   9.2107
     9.2116   9.2119   9.2150   9.2150   9.3874   9.3874   9.3894   9.3894
    12.6914  12.6914  12.7062  12.7071  12.7074  12.7074  12.7228  12.7228
    12.7284  12.7293  12.7294  12.7294  12.7982  12.7982  12.8117  12.8130
    12.8135  12.8135  12.8135  12.8136  12.8136  12.8137  12.8137  12.8138
    13.0378  13.0378  13.0476  13.0476  13.0482  13.0483  13.0715  13.0715
    13.0761  13.0761  13.1157  13.1157  13.1263  13.1263  13.1267  13.1267
    13.1295  13.1295  13.1316  13.1316  13.1322  13.1322  13.1873  13.1873
    13.1998  13.1998  13.2007  13.2007  13.2007  13.2008  13.2009  13.2010
    13.2010  13.2015  13.2095  13.2095  13.2122  13.2122  13.2124  13.2126
    13.6074  13.6077  15.5772  15.5772  15.5772  15.5772  15.5785  15.5790
    16.3165  16.3167  16.4248  16.4248  16.4249  16.4249  16.4261  16.4264
    17.3644  17.3644  17.3646  17.3646  17.3647  17.3655  17.4276  17.4276
    17.4277  17.4277  17.4292  17.4296  17.4368  17.4368  17.4370  17.4370
    17.4395  17.4398  18.1270  18.1272  18.1274  18.1277

     occupation numbers 
     1.0000   1.0000   1.0000   1.0000   1.0000   1.0000   1.0000   1.0000
     1.0000   1.0000   1.0000   1.0000   1.0000   1.0000   1.0000   1.0000
     1.0000   1.0000   1.0000   1.0000   1.0000   1.0000   1.0000   1.0000
     1.0000   1.0000   1.0000   1.0000   1.0000   1.0000   1.0000   1.0000
     1.0000   1.0000   1.0000   1.0000   1.0000   1.0000   1.0000   1.0000
     1.0000   1.0000   1.0000   1.0000   1.0000   1.0000   1.0000   1.0000
     1.0000   1.0000   1.0000   1.0000   1.0000   1.0000   1.0000   1.0000
     1.0000   1.0000   1.0000   1.0000   1.0000   1.0000   1.0000   1.0000
     1.0000   1.0000   1.0000   1.0000   1.0000   1.0000   1.0000   1.0000
     1.0000   1.0000   1.0000   1.0000   1.0000   1.0000   1.0000   1.0000
     1.0000   1.0000   1.0000   1.0000   1.0000   1.0000   1.0000   1.0000
     1.0000   1.0000   1.0000   1.0000   1.0000   1.0000   1.0000   1.0000
     1.0000   1.0000   1.0000   1.0000   1.0000   1.0000   1.0000   1.0000
     1.0000   1.0000   1.0000   1.0000   1.0000   1.0000   1.0000   1.0000
     1.0000   1.0000   1.0000   1.0000   1.0000   1.0000   1.0000   1.0000
     1.0000   1.0000   1.0000   1.0000   1.0000   1.0000   1.0000   1.0000
     1.0000   1.0000   1.0000   1.0000   1.0000   1.0000   1.0000   1.0000
     1.0000   1.0000   1.0000   1.0000   1.0000   1.0000   1.0000   1.0000
     1.0000   1.0000   1.0000   1.0000   1.0000   1.0000   1.0000   1.0000
     1.0000   1.0000   1.0000   1.0000   1.0000   1.0000   1.0000   1.0000
     1.0000   1.0000   1.0000   1.0000   1.0000   1.0000   1.0000   1.0000
     1.0000   1.0000   1.0000   1.0000   1.0000   1.0000   1.0000   1.0000
     1.0000   1.0000   1.0000   1.0000   1.0000   1.0000   1.0000   1.0000
     1.0000   1.0000   1.0000   1.0000   1.0000   1.0000   1.0000   1.0000
     1.0000   1.0000   1.0000   1.0000   1.0000   1.0000   1.0000   1.0000
     1.0000   1.0000   1.0000   1.0000   1.0000   1.0000   1.0000   1.0000
     1.0000   1.0000   1.0000   1.0000   1.0000   1.0000   1.0000   1.0000
     1.0000   1.0000   1.0000   1.0000   1.0000   1.0000   1.0000   1.0000
     1.0000   1.0000   1.0000   1.0000   1.0000   1.0000   1.0000   1.0000
     1.0000   1.0000   1.0000   1.0000   1.0000   1.0000   1.0000   1.0000
     1.0000   1.0000   1.0000   1.0000   1.0000   1.0000   1.0000   1.0000
     1.0000   1.0000   1.0000   1.0000   1.0000   1.0000   1.0000   1.0000
     1.0000   1.0000   1.0000   1.0000   1.0000   1.0000   1.0000   1.0000
     1.0000   1.0000   1.0000   1.0000   1.0000   1.0000   1.0000   1.0000
     1.0000   1.0000   1.0000   1.0000   1.0000   1.0000   1.0000   1.0000
     1.0000   1.0000   1.0000   1.0000   1.0000   1.0000   1.0000   1.0000
     1.0000   1.0000   1.0000   1.0000   1.0000   1.0000   1.0000   1.0000
     1.0000   1.0000   1.0000   1.0000   1.0000   1.0000   1.0000   1.0000
     1.0000   1.0000   1.0000   1.0000   1.0000   1.0000   1.0000   1.0000
     1.0000   1.0000   1.0000   1.0000   1.0000   1.0000   1.0000   1.0000
     1.0000   1.0000   1.0000   1.0000   1.0000   1.0000   1.0000   1.0000
     1.0000   1.0000   1.0000   1.0000   1.0000   1.0000   1.0000   1.0000
     1.0000   1.0000   1.0000   1.0000   1.0000   1.0000   1.0000   1.0000
     1.0000   1.0000   1.0000   1.0000   1.0000   1.0000   1.0000   1.0000
     1.0000   1.0000   1.0000   1.0000   1.0000   1.0000   1.0000   1.0000
     1.0000   1.0000   1.0000   1.0000   1.0000   1.0000   1.0000   1.0000
     1.0000   1.0000   1.0000   1.0000   1.0000   1.0000   1.0000   1.0000
     1.0000   1.0000   1.0000   1.0000   1.0000   1.0000   1.0000   1.0000
     1.0000   1.0000   1.0000   1.0000   1.0000   1.0000   1.0000   1.0000
     1.0000   1.0000   1.0000   1.0000   1.0000   1.0000   1.0000   1.0000
     1.0000   1.0000   1.0000   1.0000   1.0000   1.0000   1.0000   1.0000
     1.0000   1.0000   1.0000   1.0000   1.0000   1.0000   1.0000   1.0000
     1.0000   1.0000   1.0000   1.0000   1.0000   1.0000   1.0000   1.0000
     1.0000   1.0000   1.0000   1.0000   1.0000   1.0000   1.0000   1.0000
     1.0000   1.0000   1.0000   1.0000   1.0000   1.0000   1.0000   1.0000
     1.0000   1.0000   1.0000   1.0000   1.0000   1.0000   1.0000   1.0000
     1.0000   1.0000   1.0000   1.0000   1.0000   1.0000   1.0000   1.0000
     1.0000   1.0000   1.0000   1.0000   1.0000   1.0000   1.0000   1.0000
     1.0000   1.0000   1.0000   1.0000   1.0000   1.0000   1.0000   1.0000
     1.0000   1.0000   1.0000   1.0000   1.0000   1.0000   1.0000   1.0000
     1.0000   1.0000   1.0000   1.0000   1.0000   1.0000   1.0000   1.0000
     1.0000   1.0000   1.0000   1.0000   1.0000   1.0000   1.0000   1.0000
     1.0000   1.0000   1.0000   1.0000   1.0000   1.0000   1.0000   1.0000
     1.0000   1.0000   1.0000   1.0000   1.0000   1.0000   1.0000   1.0000
    -0.0000  -0.0000  -0.0000  -0.0000  -0.0000  -0.0000  -0.0000  -0.0000
    -0.0000  -0.0000  -0.0000  -0.0000  -0.0000  -0.0000  -0.0000  -0.0000
    -0.0000  -0.0000  -0.0000  -0.0000  -0.0000  -0.0000  -0.0000  -0.0000
    -0.0000  -0.0000  -0.0000  -0.0000  -0.0000  -0.0000  -0.0000  -0.0000
    -0.0000  -0.0000  -0.0000  -0.0000  -0.0000  -0.0000  -0.0000  -0.0000
    -0.0000  -0.0000  -0.0000  -0.0000  -0.0000  -0.0000  -0.0000  -0.0000
    -0.0000  -0.0000  -0.0000  -0.0000  -0.0000  -0.0000  -0.0000  -0.0000
    -0.0000  -0.0000  -0.0000  -0.0000  -0.0000  -0.0000  -0.0000  -0.0000
    -0.0000  -0.0000  -0.0000  -0.0000  -0.0000  -0.0000  -0.0000  -0.0000
    -0.0000  -0.0000  -0.0000  -0.0000  -0.0000  -0.0000  -0.0000  -0.0000
    -0.0000  -0.0000  -0.0000  -0.0000  -0.0000  -0.0000  -0.0000  -0.0000
    -0.0000  -0.0000  -0.0000  -0.0000  -0.0000  -0.0000  -0.0000  -0.0000
    -0.0000  -0.0000  -0.0000  -0.0000  -0.0000  -0.0000

     the Fermi energy is    11.6529 ev

!    total energy              =   -4272.55412798 Ry
     Harris-Foulkes estimate   =   -4272.55412798 Ry
     estimated scf accuracy    <          4.3E-14 Ry

     The total energy is the sum of the following terms:

     one-electron contribution =    -522.30479752 Ry
     hartree contribution      =     874.62428700 Ry
     xc contribution           =   -1590.17168634 Ry
     ewald contribution        =   -3038.16282038 Ry
     Hubbard energy            =       3.46088926 Ry
     smearing contrib. (-TS)   =       0.00000000 Ry

     total magnetization       =     0.00    -0.00     0.00 Bohr mag/cell
     absolute magnetization    =    56.14 Bohr mag/cell

     convergence has been achieved in  19 iterations
 
     init_run     :     42.60s CPU     44.23s WALL (       1 calls)
     electrons    :   1751.29s CPU   1781.45s WALL (       1 calls)

     Called by init_run:
     wfcinit      :     41.19s CPU     42.28s WALL (       1 calls)
     wfcinit:atom :      0.03s CPU      0.03s WALL (       4 calls)
     wfcinit:wfcr :     30.98s CPU     31.80s WALL (       4 calls)
     potinit      :      0.24s CPU      0.56s WALL (       1 calls)
     hinit0       :      0.60s CPU      0.68s WALL (       1 calls)

     Called by electrons:
     c_bands      :   1596.65s CPU   1622.45s WALL (      20 calls)
     sum_band     :    150.78s CPU    154.70s WALL (      20 calls)
     v_of_rho     :      0.68s CPU      0.70s WALL (      20 calls)
     v_h          :      0.07s CPU      0.07s WALL (      20 calls)
     v_xc         :      0.29s CPU      0.30s WALL (      20 calls)
     newd         :      1.00s CPU      1.09s WALL (      20 calls)
     mix_rho      :      0.83s CPU      0.87s WALL (      20 calls)

     Called by c_bands:
     init_us_2    :      0.57s CPU      0.59s WALL (     168 calls)
     cegterg      :   1346.86s CPU   1372.32s WALL (      80 calls)

     Called by sum_band:
     sum_band:bec :      4.96s CPU      5.00s WALL (      80 calls)
     addusdens    :      0.80s CPU      0.81s WALL (      20 calls)

     Called by *egterg:
     h_psi        :    601.82s CPU    622.32s WALL (     278 calls)
     s_psi        :    297.10s CPU    297.87s WALL (     282 calls)
     g_psi        :      1.48s CPU      1.49s WALL (     194 calls)
     cdiaghg      :    377.14s CPU    380.44s WALL (     270 calls)
     cegterg:over :     42.66s CPU     43.73s WALL (     194 calls)
     cegterg:upda :     30.69s CPU     31.00s WALL (     194 calls)
     cegterg:last :     16.48s CPU     16.75s WALL (      84 calls)
     cdiaghg:chol :     16.31s CPU     16.41s WALL (     270 calls)
     cdiaghg:inve :      2.45s CPU      2.50s WALL (     270 calls)
     cdiaghg:para :     42.79s CPU     43.78s WALL (     540 calls)

     Called by h_psi:
     h_psi:pot    :    452.88s CPU    472.84s WALL (     278 calls)
     h_psi:calbec :     24.84s CPU     25.88s WALL (     278 calls)
     vloc_psi     :    371.48s CPU    389.42s WALL (     278 calls)
     add_vuspsi   :     56.55s CPU     57.54s WALL (     278 calls)
     vhpsi        :    148.49s CPU    149.00s WALL (     278 calls)

     General routines
     calbec       :     35.72s CPU     36.93s WALL (     362 calls)
     fft          :      1.34s CPU      1.40s WALL (     410 calls)
     ffts         :      0.47s CPU      0.48s WALL (     160 calls)
     fftw         :    419.50s CPU    437.44s WALL (  559924 calls)
     interpolate  :      0.38s CPU      0.40s WALL (      80 calls)
 
     Parallel routines
     fft_scatt_xy :     24.48s CPU     25.88s WALL (  560494 calls)
     fft_scatt_yz :    336.29s CPU    352.65s WALL (  560494 calls)

     Hubbard U routines
     new_ns       :     41.17s CPU     41.25s WALL (      20 calls)
     vhpsi        :    148.49s CPU    149.00s WALL (     278 calls)
 
     PWSCF        :  30m 1.73s CPU  30m34.11s WALL

 
   This run was terminated on:  19: 6:51  19May2020            

=------------------------------------------------------------------------------=
   JOB DONE.
=------------------------------------------------------------------------------=
